 Entering Gaussian System, Link 0=g16
 Input=ne_beb.gjf
 Output=ne_beb.log
 Initial command:
 /home/app/Gaussian/16.C.01/g16/l1.exe "/home/pj25000080/ku50001398/Gau-227403.inp" -scrdir="/home/pj25000080/ku50001398/"
 Entering Link 1 = /home/app/Gaussian/16.C.01/g16/l1.exe PID=    227406.
  
 Copyright (c) 1988-2019, Gaussian, Inc.  All Rights Reserved.
  
 This is part of the Gaussian(R) 16 program.  It is based on
 the Gaussian(R) 09 system (copyright 2009, Gaussian, Inc.),
 the Gaussian(R) 03 system (copyright 2003, Gaussian, Inc.),
 the Gaussian(R) 98 system (copyright 1998, Gaussian, Inc.),
 the Gaussian(R) 94 system (copyright 1995, Gaussian, Inc.),
 the Gaussian 92(TM) system (copyright 1992, Gaussian, Inc.),
 the Gaussian 90(TM) system (copyright 1990, Gaussian, Inc.),
 the Gaussian 88(TM) system (copyright 1988, Gaussian, Inc.),
 the Gaussian 86(TM) system (copyright 1986, Carnegie Mellon
 University), and the Gaussian 82(TM) system (copyright 1983,
 Carnegie Mellon University). Gaussian is a federally registered
 trademark of Gaussian, Inc.
  
 This software contains proprietary and confidential information,
 including trade secrets, belonging to Gaussian, Inc.
  
 This software is provided under written license and may be
 used, copied, transmitted, or stored only in accord with that
 written license.
  
 The following legend is applicable only to US Government
 contracts under FAR:
  
                    RESTRICTED RIGHTS LEGEND
  
 Use, reproduction and disclosure by the US Government is
 subject to restrictions as set forth in subparagraphs (a)
 and (c) of the Commercial Computer Software - Restricted
 Rights clause in FAR 52.227-19.
  
 Gaussian, Inc.
 340 Quinnipiac St., Bldg. 40, Wallingford CT 06492
  
  
 ---------------------------------------------------------------
 Warning -- This program may not be used in any manner that
 competes with the business of Gaussian, Inc. or will provide
 assistance to any competitor of Gaussian, Inc.  The licensee
 of this program is prohibited from giving any competitor of
 Gaussian, Inc. access to this program.  By using this program,
 the user acknowledges that Gaussian, Inc. is engaged in the
 business of creating and licensing software in the field of
 computational chemistry and represents and warrants to the
 licensee that it is not a competitor of Gaussian, Inc. and that
 it will not use this program in any manner prohibited above.
 ---------------------------------------------------------------
  

 Cite this work as:
 Gaussian 16, Revision C.01,
 M. J. Frisch, G. W. Trucks, H. B. Schlegel, G. E. Scuseria, 
 M. A. Robb, J. R. Cheeseman, G. Scalmani, V. Barone, 
 G. A. Petersson, H. Nakatsuji, X. Li, M. Caricato, A. V. Marenich, 
 J. Bloino, B. G. Janesko, R. Gomperts, B. Mennucci, H. P. Hratchian, 
 J. V. Ortiz, A. F. Izmaylov, J. L. Sonnenberg, D. Williams-Young, 
 F. Ding, F. Lipparini, F. Egidi, J. Goings, B. Peng, A. Petrone, 
 T. Henderson, D. Ranasinghe, V. G. Zakrzewski, J. Gao, N. Rega, 
 G. Zheng, W. Liang, M. Hada, M. Ehara, K. Toyota, R. Fukuda, 
 J. Hasegawa, M. Ishida, T. Nakajima, Y. Honda, O. Kitao, H. Nakai, 
 T. Vreven, K. Throssell, J. A. Montgomery, Jr., J. E. Peralta, 
 F. Ogliaro, M. J. Bearpark, J. J. Heyd, E. N. Brothers, K. N. Kudin, 
 V. N. Staroverov, T. A. Keith, R. Kobayashi, J. Normand, 
 K. Raghavachari, A. P. Rendell, J. C. Burant, S. S. Iyengar, 
 J. Tomasi, M. Cossi, J. M. Millam, M. Klene, C. Adamo, R. Cammi, 
 J. W. Ochterski, R. L. Martin, K. Morokuma, O. Farkas, 
 J. B. Foresman, and D. J. Fox, Gaussian, Inc., Wallingford CT, 2019.
 
 ******************************************
 Gaussian 16:  ES64L-G16RevC.01  3-Jul-2019
                 9-Jul-2025 
 ******************************************
 %chk=ar_beb.chk
 %mem=4GB
 %nproc=4
 Will use up to    4 processors via shared memory.
 ----------------------------------------------------------
 #p B3LYP/aug-cc-pVTZ IOp(3/33=1,6/80=1) SCF=Tight Pop=Full
 ----------------------------------------------------------
 1/38=1,172=1/1;
 2/12=2,17=6,18=5,40=1/2;
 3/5=16,6=1,7=10,11=2,25=1,30=1,33=1,74=-5/1,2,3;
 4//1;
 5/5=2,32=2,38=5/2;
 6/7=3,28=1,80=1/1;
 99/5=1,9=1/99;
 Leave Link    1 at Wed Jul  9 12:53:20 2025, MaxMem=   536870912 cpu:               0.1 elap:               0.0
 (Enter /home/app/Gaussian/16.C.01/g16/l101.exe)
 ---------------------------------------------
 Ar atom BEB calculation with kinetic energies
 ---------------------------------------------
 Symbolic Z-matrix:
 Charge =  0 Multiplicity = 1
 Ar                    0.        0.        0. 
 
 ITRead=  0
 MicOpt= -1
 NAtoms=      1 NQM=        1 NQMF=       0 NMMI=      0 NMMIF=      0
                NMic=       0 NMicF=      0.
                    Isotopes and Nuclear Properties:
 (Nuclear quadrupole moments (NQMom) in fm**2, nuclear magnetic moments (NMagM)
  in nuclear magnetons)

  Atom         1
 IAtWgt=          40
 AtmWgt=  39.9623831
 NucSpn=           0
 AtZEff=  -0.0000000
 NQMom=    0.0000000
 NMagM=    0.0000000
 AtZNuc=  18.0000000
 Leave Link  101 at Wed Jul  9 12:53:21 2025, MaxMem=   536870912 cpu:               0.3 elap:               0.1
 (Enter /home/app/Gaussian/16.C.01/g16/l202.exe)
                          Input orientation:                          
 ---------------------------------------------------------------------
 Center     Atomic      Atomic             Coordinates (Angstroms)
 Number     Number       Type             X           Y           Z
 ---------------------------------------------------------------------
      1         18           0        0.000000    0.000000    0.000000
 ---------------------------------------------------------------------
 Stoichiometry    Ar
 Framework group  OH[O(Ar)]
 Deg. of freedom     0
 Full point group                 OH      NOp  48
 Largest Abelian subgroup         D2H     NOp   8
 Largest concise Abelian subgroup C1      NOp   1
                         Standard orientation:                         
 ---------------------------------------------------------------------
 Center     Atomic      Atomic             Coordinates (Angstroms)
 Number     Number       Type             X           Y           Z
 ---------------------------------------------------------------------
      1         18           0        0.000000    0.000000    0.000000
 ---------------------------------------------------------------------
 Leave Link  202 at Wed Jul  9 12:53:21 2025, MaxMem=   536870912 cpu:               0.1 elap:               0.0
 (Enter /home/app/Gaussian/16.C.01/g16/l301.exe)
 Standard basis: Aug-CC-pVTZ (5D, 7F)
                         Coordinates in L301:                         
 ---------------------------------------------------------------------
 Center     Atomic      Atomic             Coordinates (Angstroms)
 Number     Number       Type             X           Y           Z
 ---------------------------------------------------------------------
      1         18           0        0.000000    0.000000    0.000000
 ---------------------------------------------------------------------
 FixB: optimizing general contractions.
 Ernie: Thresh=  0.10000D-02 Tol=  0.10000D-05 Strict=F.
 IA=     1 ShT= 0 ShC= 0 NL=   6 NS=   3.
 IA=     1 L=0 SC=0 ISt=    1 NBk=    3 NP=   13 IndPr=    0.
 DoElim1:  L=0 select primitive    3 from    2 using    1 C= 1.86D-03
 DoElim1:  L=0 select primitive    3 from    3 using    1 C= 1.86D-03
 DoElim1:  L=0 select primitive    6 from    3 using    2 C=-1.10D-03
 DoElim2:  L=0 select primitive   13 from    2 using    3 C= 7.31D-01
 DoElim2:  L=0 select primitive   13 from    1 using    3 C= 7.31D-01
 DoElim2:  L=0 select primitive   12 from    1 using    2 C= 5.77D-01
 Delete L=0 primitive    6 from    3 C=  1.17D-20.
 Delete L=0 primitive    4 from    3 C=  8.49D-07.
 Delete L=0 primitive    3 from    3 C=  1.06D-20.
 Delete L=0 primitive    2 from    3 C=  3.39D-08.
 Delete L=0 primitive    1 from    3 C=  3.18D-09.
 Delete L=0 primitive   13 from    2 C=  6.08D-19.
 Delete L=0 primitive    4 from    2 C=  3.02D-07.
 Delete L=0 primitive    3 from    2 C=  3.26D-20.
 Delete L=0 primitive    2 from    2 C=  5.02D-07.
 Delete L=0 primitive    1 from    2 C=  3.17D-08.
 Delete L=0 primitive   13 from    1 C=  5.35D-22.
 Delete L=0 primitive   12 from    1 C=  2.54D-20.
 IA=     1 L=0 SC=0 ISt=    0 NBk=    0 NP=    0 IndPr=   27.
 IA=     1 ShT= 1 ShC= 1 NL=   5 NS=   3.
 IA=     1 L=1 SC=1 ISt=    1 NBk=    2 NP=    7 IndPr=    0.
 DoElim1:  L=1 select primitive    1 from    2 using    1 C= 2.37D-03
 DoElim2:  L=1 select primitive    7 from    1 using    2 C= 5.61D-01
 Delete L=1 primitive    1 from    2 C=  3.01D-20.
 Delete L=1 primitive    7 from    1 C=  2.74D-19.
 IA=     1 L=1 SC=1 ISt=    0 NBk=    0 NP=    0 IndPr=   12.
 IA=     1 ShT= 2 ShC= 2 NL=   3 NS=   3.
 IA=     1 L=2 SC=2 ISt=    0 NBk=    0 NP=    0 IndPr=    0.
 IA=     1 ShT= 3 ShC= 3 NL=   2 NS=   2.
 IA=     1 L=3 SC=3 ISt=    0 NBk=    0 NP=    0 IndPr=    0.
 Ernie:  14 primitive shells out of 64 were deleted.
 LdAtmC:  AtmChg=    18.000000
 AtZEff=    -14.9000000
 NEqShl: 
              1            2            3            4            5
     1            1            1            1            1            1
     2            2            2            2            2            2
     3            3            3            3            3            3
     4            4            4            4            4            4
     5            5            5            5            5            5
     6            6            6            6            6            6
     7            7            7            7            7            7
     8            8            8            8            8            8
     9            9            9            9            9            9
    10           10           10           10           10           10
    11           11           11           11           11           11
    12           12           12           12           12           12
    13           13           13           13           13           13
    14           14           14           14           14           14
    15           15           15           15           15           15
    16           16           16           16           16           16
              6            7            8            9           10
     1            1            1            1            1            1
     2            2            2            2            2            2
     3            3            3            3            3            3
     4            4            4            4            4            4
     5            5            5            5            5            5
     6            6            6            6            6            6
     7            7            7            7            7            7
     8            8            8            8            8            8
     9            9            9            9            9            9
    10           10           10           10           10           10
    11           11           11           11           11           11
    12           12           12           12           12           12
    13           13           13           13           13           13
    14           14           14           14           14           14
    15           15           15           15           15           15
    16           16           16           16           16           16
             11           12           13           14           15
     1            1            1            1            1            1
     2            2            2            2            2            2
     3            3            3            3            3            3
     4            4            4            4            4            4
     5            5            5            5            5            5
     6            6            6            6            6            6
     7            7            7            7            7            7
     8            8            8            8            8            8
     9            9            9            9            9            9
    10           10           10           10           10           10
    11           11           11           11           11           11
    12           12           12           12           12           12
    13           13           13           13           13           13
    14           14           14           14           14           14
    15           15           15           15           15           15
    16           16           16           16           16           16
             16           17           18           19           20
     1            1            1            1            1            1
     2            2            2            2            2            2
     3            3            3            3            3            3
     4            4            4            4            4            4
     5            5            5            5            5            5
     6            6            6            6            6            6
     7            7            7            7            7            7
     8            8            8            8            8            8
     9            9            9            9            9            9
    10           10           10           10           10           10
    11           11           11           11           11           11
    12           12           12           12           12           12
    13           13           13           13           13           13
    14           14           14           14           14           14
    15           15           15           15           15           15
    16           16           16           16           16           16
             21           22           23           24           25
     1            1            1            1            1            1
     2            2            2            2            2            2
     3            3            3            3            3            3
     4            4            4            4            4            4
     5            5            5            5            5            5
     6            6            6            6            6            6
     7            7            7            7            7            7
     8            8            8            8            8            8
     9            9            9            9            9            9
    10           10           10           10           10           10
    11           11           11           11           11           11
    12           12           12           12           12           12
    13           13           13           13           13           13
    14           14           14           14           14           14
    15           15           15           15           15           15
    16           16           16           16           16           16
             26           27           28           29           30
     1            1            1            1            1            1
     2            2            2            2            2            2
     3            3            3            3            3            3
     4            4            4            4            4            4
     5            5            5            5            5            5
     6            6            6            6            6            6
     7            7            7            7            7            7
     8            8            8            8            8            8
     9            9            9            9            9            9
    10           10           10           10           10           10
    11           11           11           11           11           11
    12           12           12           12           12           12
    13           13           13           13           13           13
    14           14           14           14           14           14
    15           15           15           15           15           15
    16           16           16           16           16           16
             31           32           33           34           35
     1            1            1            1            1            1
     2            2            2            2            2            2
     3            3            3            3            3            3
     4            4            4            4            4            4
     5            5            5            5            5            5
     6            6            6            6            6            6
     7            7            7            7            7            7
     8            8            8            8            8            8
     9            9            9            9            9            9
    10           10           10           10           10           10
    11           11           11           11           11           11
    12           12           12           12           12           12
    13           13           13           13           13           13
    14           14           14           14           14           14
    15           15           15           15           15           15
    16           16           16           16           16           16
             36           37           38           39           40
     1            1            1            1            1            1
     2            2            2            2            2            2
     3            3            3            3            3            3
     4            4            4            4            4            4
     5            5            5            5            5            5
     6            6            6            6            6            6
     7            7            7            7            7            7
     8            8            8            8            8            8
     9            9            9            9            9            9
    10           10           10           10           10           10
    11           11           11           11           11           11
    12           12           12           12           12           12
    13           13           13           13           13           13
    14           14           14           14           14           14
    15           15           15           15           15           15
    16           16           16           16           16           16
             41           42           43           44           45
     1            1            1            1            1            1
     2            2            2            2            2            2
     3            3            3            3            3            3
     4            4            4            4            4            4
     5            5            5            5            5            5
     6            6            6            6            6            6
     7            7            7            7            7            7
     8            8            8            8            8            8
     9            9            9            9            9            9
    10           10           10           10           10           10
    11           11           11           11           11           11
    12           12           12           12           12           12
    13           13           13           13           13           13
    14           14           14           14           14           14
    15           15           15           15           15           15
    16           16           16           16           16           16
             46           47           48
     1            1            1            1
     2            2            2            2
     3            3            3            3
     4            4            4            4
     5            5            5            5
     6            6            6            6
     7            7            7            7
     8            8            8            8
     9            9            9            9
    10           10           10           10
    11           11           11           11
    12           12           12           12
    13           13           13           13
    14           14           14           14
    15           15           15           15
    16           16           16           16
 NEqBas: 
              1            2            3            4            5
     1            1            1            1            1            1
     2            2            2            2            2            2
     3            3            3            3            3            3
     4            4            4            4            4            4
     5            5            5            5            5            5
     6            6            6            6            6            6
     7            7            7           -7           -7           -7
     8            8           -8            8           -8           -8
     9            9           -9           -9            9           -9
    10           10           10          -10          -10          -10
    11           11          -11           11          -11          -11
    12           12          -12          -12           12          -12
    13           13           13          -13          -13          -13
    14           14          -14           14          -14          -14
    15           15          -15          -15           15          -15
    16           16           16          -16          -16          -16
    17           17          -17           17          -17          -17
    18           18          -18          -18           18          -18
    19           19           19          -19          -19          -19
    20           20          -20           20          -20          -20
    21           21          -21          -21           21          -21
    22           22           22           22           22           22
    23           23           23           23           23           23
    24           24           24           24           24           24
    25           25          -25          -25           25           25
    26           26          -26           26          -26           26
    27           27           27          -27          -27           27
    28           28           28           28           28           28
    29           29           29           29           29           29
    30           30           30           30           30           30
    31           31          -31          -31           31           31
    32           32          -32           32          -32           32
    33           33           33          -33          -33           33
    34           34           34           34           34           34
    35           35           35           35           35           35
    36           36           36           36           36           36
    37           37          -37          -37           37           37
    38           38          -38           38          -38           38
    39           39           39          -39          -39           39
    40           40           40          -40          -40          -40
    41           41          -41           41          -41          -41
    42           42          -42          -42           42          -42
    43           43           43          -43          -43          -43
    44           44          -44           44          -44          -44
    45           45          -45          -45           45          -45
    46           46           46          -46          -46          -46
    47           47          -47           47          -47          -47
    48           48          -48          -48           48          -48
    49           49           49           49           49          -49
    50           50           50          -50          -50          -50
    51           51          -51           51          -51          -51
    52           52          -52          -52           52          -52
    53           53           53          -53          -53          -53
    54           54          -54           54          -54          -54
    55           55          -55          -55           55          -55
    56           56           56          -56          -56          -56
    57           57          -57           57          -57          -57
    58           58          -58          -58           58          -58
    59           59           59           59           59          -59
              6            7            8
     1            1            1            1
     2            2            2            2
     3            3            3            3
     4            4            4            4
     5            5            5            5
     6            6            6            6
     7           -7            7            7
     8            8           -8            8
     9            9            9           -9
    10          -10           10           10
    11           11          -11           11
    12           12           12          -12
    13          -13           13           13
    14           14          -14           14
    15           15           15          -15
    16          -16           16           16
    17           17          -17           17
    18           18           18          -18
    19          -19           19           19
    20           20          -20           20
    21           21           21          -21
    22           22           22           22
    23           23           23           23
    24           24           24           24
    25          -25          -25           25
    26          -26           26          -26
    27           27          -27          -27
    28           28           28           28
    29           29           29           29
    30           30           30           30
    31          -31          -31           31
    32          -32           32          -32
    33           33          -33          -33
    34           34           34           34
    35           35           35           35
    36           36           36           36
    37          -37          -37           37
    38          -38           38          -38
    39           39          -39          -39
    40          -40           40           40
    41           41          -41           41
    42           42           42          -42
    43          -43           43           43
    44           44          -44           44
    45           45           45          -45
    46          -46           46           46
    47           47          -47           47
    48           48           48          -48
    49          -49          -49          -49
    50          -50           50           50
    51           51          -51           51
    52           52           52          -52
    53          -53           53           53
    54           54          -54           54
    55           55           55          -55
    56          -56           56           56
    57           57          -57           57
    58           58           58          -58
    59          -59          -59          -59
 There are    15 symmetry adapted cartesian basis functions of AG  symmetry.
   1         1   1   1   1   1   1   1   1
   2         2   2   2   2   2   2   2   2
   3         3   3   3   3   3   3   3   3
   4         4   4   4   4   4   4   4   4
   5         5   5   5   5   5   5   5   5
   6         6   6   6   6   6   6   6   6
   7        22  22  22  22  22  22  22  22
   8        23  23  23  23  23  23  23  23
   9        24  24  24  24  24  24  24  24
  10        28  28  28  28  28  28  28  28
  11        29  29  29  29  29  29  29  29
  12        30  30  30  30  30  30  30  30
  13        34  34  34  34  34  34  34  34
  14        35  35  35  35  35  35  35  35
  15        36  36  36  36  36  36  36  36
 There are     3 symmetry adapted cartesian basis functions of B1G symmetry.
  16        25  25  25  25  25  25  25  25
  17        31  31  31  31  31  31  31  31
  18        37  37  37  37  37  37  37  37
 There are     3 symmetry adapted cartesian basis functions of B2G symmetry.
  19        26  26  26  26  26  26  26  26
  20        32  32  32  32  32  32  32  32
  21        38  38  38  38  38  38  38  38
 There are     3 symmetry adapted cartesian basis functions of B3G symmetry.
  22        27  27  27  27  27  27  27  27
  23        33  33  33  33  33  33  33  33
  24        39  39  39  39  39  39  39  39
 There are     2 symmetry adapted cartesian basis functions of AU  symmetry.
  25        49  49  49  49  49  49  49  49
  26        59  59  59  59  59  59  59  59
 There are    11 symmetry adapted cartesian basis functions of B1U symmetry.
  27         9   9   9   9   9   9   9   9
  28        12  12  12  12  12  12  12  12
  29        15  15  15  15  15  15  15  15
  30        18  18  18  18  18  18  18  18
  31        21  21  21  21  21  21  21  21
  32        42  42  42  42  42  42  42  42
  33        45  45  45  45  45  45  45  45
  34        48  48  48  48  48  48  48  48
  35        52  52  52  52  52  52  52  52
  36        55  55  55  55  55  55  55  55
  37        58  58  58  58  58  58  58  58
 There are    11 symmetry adapted cartesian basis functions of B2U symmetry.
  38         8   8   8   8   8   8   8   8
  39        11  11  11  11  11  11  11  11
  40        14  14  14  14  14  14  14  14
  41        17  17  17  17  17  17  17  17
  42        20  20  20  20  20  20  20  20
  43        41  41  41  41  41  41  41  41
  44        44  44  44  44  44  44  44  44
  45        47  47  47  47  47  47  47  47
  46        51  51  51  51  51  51  51  51
  47        54  54  54  54  54  54  54  54
  48        57  57  57  57  57  57  57  57
 There are    11 symmetry adapted cartesian basis functions of B3U symmetry.
  49         7   7   7   7   7   7   7   7
  50        10  10  10  10  10  10  10  10
  51        13  13  13  13  13  13  13  13
  52        16  16  16  16  16  16  16  16
  53        19  19  19  19  19  19  19  19
  54        40  40  40  40  40  40  40  40
  55        43  43  43  43  43  43  43  43
  56        46  46  46  46  46  46  46  46
  57        50  50  50  50  50  50  50  50
  58        53  53  53  53  53  53  53  53
  59        56  56  56  56  56  56  56  56
 Order= 1 4 3 2 5 8 7 6
 Reordered character table:
              1            2            3            4            5
     1            1            1            1            1            1
     2            4            1           -1           -1            1
     3            3            1           -1            1           -1
     4            2            1            1           -1           -1
     5            5            1            1            1            1
     6            8            1           -1           -1            1
     7            7            1           -1            1           -1
     8            6            1            1           -1           -1
              6            7            8            9
     1            1            1            1            1
     2            1           -1           -1            1
     3            1           -1            1           -1
     4            1            1           -1           -1
     5           -1           -1           -1           -1
     6           -1            1            1           -1
     7           -1            1           -1            1
     8           -1           -1            1            1
 NEqShl: 
              1            2            3            4            5
     1            1            1            1            1            1
     2            2            2            2            2            2
     3            3            3            3            3            3
     4            4            4            4            4            4
     5            5            5            5            5            5
     6            6            6            6            6            6
     7            7            7            7            7            7
     8            8            8            8            8            8
     9            9            9            9            9            9
    10           10           10           10           10           10
    11           11           11           11           11           11
    12           12           12           12           12           12
    13           13           13           13           13           13
    14           14           14           14           14           14
    15           15           15           15           15           15
    16           16           16           16           16           16
              6            7            8            9           10
     1            1            1            1            1            1
     2            2            2            2            2            2
     3            3            3            3            3            3
     4            4            4            4            4            4
     5            5            5            5            5            5
     6            6            6            6            6            6
     7            7            7            7            7            7
     8            8            8            8            8            8
     9            9            9            9            9            9
    10           10           10           10           10           10
    11           11           11           11           11           11
    12           12           12           12           12           12
    13           13           13           13           13           13
    14           14           14           14           14           14
    15           15           15           15           15           15
    16           16           16           16           16           16
             11           12           13           14           15
     1            1            1            1            1            1
     2            2            2            2            2            2
     3            3            3            3            3            3
     4            4            4            4            4            4
     5            5            5            5            5            5
     6            6            6            6            6            6
     7            7            7            7            7            7
     8            8            8            8            8            8
     9            9            9            9            9            9
    10           10           10           10           10           10
    11           11           11           11           11           11
    12           12           12           12           12           12
    13           13           13           13           13           13
    14           14           14           14           14           14
    15           15           15           15           15           15
    16           16           16           16           16           16
             16           17           18           19           20
     1            1            1            1            1            1
     2            2            2            2            2            2
     3            3            3            3            3            3
     4            4            4            4            4            4
     5            5            5            5            5            5
     6            6            6            6            6            6
     7            7            7            7            7            7
     8            8            8            8            8            8
     9            9            9            9            9            9
    10           10           10           10           10           10
    11           11           11           11           11           11
    12           12           12           12           12           12
    13           13           13           13           13           13
    14           14           14           14           14           14
    15           15           15           15           15           15
    16           16           16           16           16           16
             21           22           23           24           25
     1            1            1            1            1            1
     2            2            2            2            2            2
     3            3            3            3            3            3
     4            4            4            4            4            4
     5            5            5            5            5            5
     6            6            6            6            6            6
     7            7            7            7            7            7
     8            8            8            8            8            8
     9            9            9            9            9            9
    10           10           10           10           10           10
    11           11           11           11           11           11
    12           12           12           12           12           12
    13           13           13           13           13           13
    14           14           14           14           14           14
    15           15           15           15           15           15
    16           16           16           16           16           16
             26           27           28           29           30
     1            1            1            1            1            1
     2            2            2            2            2            2
     3            3            3            3            3            3
     4            4            4            4            4            4
     5            5            5            5            5            5
     6            6            6            6            6            6
     7            7            7            7            7            7
     8            8            8            8            8            8
     9            9            9            9            9            9
    10           10           10           10           10           10
    11           11           11           11           11           11
    12           12           12           12           12           12
    13           13           13           13           13           13
    14           14           14           14           14           14
    15           15           15           15           15           15
    16           16           16           16           16           16
             31           32           33           34           35
     1            1            1            1            1            1
     2            2            2            2            2            2
     3            3            3            3            3            3
     4            4            4            4            4            4
     5            5            5            5            5            5
     6            6            6            6            6            6
     7            7            7            7            7            7
     8            8            8            8            8            8
     9            9            9            9            9            9
    10           10           10           10           10           10
    11           11           11           11           11           11
    12           12           12           12           12           12
    13           13           13           13           13           13
    14           14           14           14           14           14
    15           15           15           15           15           15
    16           16           16           16           16           16
             36           37           38           39           40
     1            1            1            1            1            1
     2            2            2            2            2            2
     3            3            3            3            3            3
     4            4            4            4            4            4
     5            5            5            5            5            5
     6            6            6            6            6            6
     7            7            7            7            7            7
     8            8            8            8            8            8
     9            9            9            9            9            9
    10           10           10           10           10           10
    11           11           11           11           11           11
    12           12           12           12           12           12
    13           13           13           13           13           13
    14           14           14           14           14           14
    15           15           15           15           15           15
    16           16           16           16           16           16
             41           42           43           44           45
     1            1            1            1            1            1
     2            2            2            2            2            2
     3            3            3            3            3            3
     4            4            4            4            4            4
     5            5            5            5            5            5
     6            6            6            6            6            6
     7            7            7            7            7            7
     8            8            8            8            8            8
     9            9            9            9            9            9
    10           10           10           10           10           10
    11           11           11           11           11           11
    12           12           12           12           12           12
    13           13           13           13           13           13
    14           14           14           14           14           14
    15           15           15           15           15           15
    16           16           16           16           16           16
             46           47           48
     1            1            1            1
     2            2            2            2
     3            3            3            3
     4            4            4            4
     5            5            5            5
     6            6            6            6
     7            7            7            7
     8            8            8            8
     9            9            9            9
    10           10           10           10
    11           11           11           11
    12           12           12           12
    13           13           13           13
    14           14           14           14
    15           15           15           15
    16           16           16           16
 NEqBas: 
              1            2            3            4            5
     1            1            1            1            1            1
     2            2            2            2            2            2
     3            3            3            3            3            3
     4            4            4            4            4            4
     5            5            5            5            5            5
     6            6            6            6            6            6
     7            7            7           -7           -7           -7
     8            8           -8            8           -8           -8
     9            9           -9           -9            9           -9
    10           10           10          -10          -10          -10
    11           11          -11           11          -11          -11
    12           12          -12          -12           12          -12
    13           13           13          -13          -13          -13
    14           14          -14           14          -14          -14
    15           15          -15          -15           15          -15
    16           16           16          -16          -16          -16
    17           17          -17           17          -17          -17
    18           18          -18          -18           18          -18
    19           19           19          -19          -19          -19
    20           20          -20           20          -20          -20
    21           21          -21          -21           21          -21
    22           22           22           22           22           22
    23           23          -23           23          -23           23
    24           24           24          -24          -24           24
    25           25           25           25           25           25
    26           26          -26          -26           26           26
    27           27           27           27           27           27
    28           28          -28           28          -28           28
    29           29           29          -29          -29           29
    30           30           30           30           30           30
    31           31          -31          -31           31           31
    32           32           32           32           32           32
    33           33          -33           33          -33           33
    34           34           34          -34          -34           34
    35           35           35           35           35           35
    36           36          -36          -36           36           36
    37           37          -37          -37           37          -37
    38           38           38          -38          -38          -38
    39           39          -39           39          -39          -39
    40           40          -40          -40           40          -40
    41           41           41           41           41          -41
    42           42           42          -42          -42          -42
    43           43          -43           43          -43          -43
    44           44          -44          -44           44          -44
    45           45           45          -45          -45          -45
    46           46          -46           46          -46          -46
    47           47          -47          -47           47          -47
    48           48           48           48           48          -48
    49           49           49          -49          -49          -49
    50           50          -50           50          -50          -50
              6            7            8
     1            1            1            1
     2            2            2            2
     3            3            3            3
     4            4            4            4
     5            5            5            5
     6            6            6            6
     7           -7            7            7
     8            8           -8            8
     9            9            9           -9
    10          -10           10           10
    11           11          -11           11
    12           12           12          -12
    13          -13           13           13
    14           14          -14           14
    15           15           15          -15
    16          -16           16           16
    17           17          -17           17
    18           18           18          -18
    19          -19           19           19
    20           20          -20           20
    21           21           21          -21
    22           22           22           22
    23          -23           23          -23
    24           24          -24          -24
    25           25           25           25
    26          -26          -26           26
    27           27           27           27
    28          -28           28          -28
    29           29          -29          -29
    30           30           30           30
    31          -31          -31           31
    32           32           32           32
    33          -33           33          -33
    34           34          -34          -34
    35           35           35           35
    36          -36          -36           36
    37           37           37          -37
    38          -38           38           38
    39           39          -39           39
    40           40           40          -40
    41          -41          -41          -41
    42          -42           42           42
    43           43          -43           43
    44           44           44          -44
    45          -45           45           45
    46           46          -46           46
    47           47           47          -47
    48          -48          -48          -48
    49          -49           49           49
    50           50          -50           50
 There are    12 symmetry adapted basis functions of AG  symmetry.
   1         1   1   1   1   1   1   1   1
   2         2   2   2   2   2   2   2   2
   3         3   3   3   3   3   3   3   3
   4         4   4   4   4   4   4   4   4
   5         5   5   5   5   5   5   5   5
   6         6   6   6   6   6   6   6   6
   7        22  22  22  22  22  22  22  22
   8        25  25  25  25  25  25  25  25
   9        27  27  27  27  27  27  27  27
  10        30  30  30  30  30  30  30  30
  11        32  32  32  32  32  32  32  32
  12        35  35  35  35  35  35  35  35
 There are     3 symmetry adapted basis functions of B1G symmetry.
  13        26  26  26  26  26  26  26  26
  14        31  31  31  31  31  31  31  31
  15        36  36  36  36  36  36  36  36
 There are     3 symmetry adapted basis functions of B2G symmetry.
  16        23  23  23  23  23  23  23  23
  17        28  28  28  28  28  28  28  28
  18        33  33  33  33  33  33  33  33
 There are     3 symmetry adapted basis functions of B3G symmetry.
  19        24  24  24  24  24  24  24  24
  20        29  29  29  29  29  29  29  29
  21        34  34  34  34  34  34  34  34
 There are     2 symmetry adapted basis functions of AU  symmetry.
  22        41  41  41  41  41  41  41  41
  23        48  48  48  48  48  48  48  48
 There are     9 symmetry adapted basis functions of B1U symmetry.
  24         9   9   9   9   9   9   9   9
  25        12  12  12  12  12  12  12  12
  26        15  15  15  15  15  15  15  15
  27        18  18  18  18  18  18  18  18
  28        21  21  21  21  21  21  21  21
  29        37  37  37  37  37  37  37  37
  30        40  40  40  40  40  40  40  40
  31        44  44  44  44  44  44  44  44
  32        47  47  47  47  47  47  47  47
 There are     9 symmetry adapted basis functions of B2U symmetry.
  33         8   8   8   8   8   8   8   8
  34        11  11  11  11  11  11  11  11
  35        14  14  14  14  14  14  14  14
  36        17  17  17  17  17  17  17  17
  37        20  20  20  20  20  20  20  20
  38        39  39  39  39  39  39  39  39
  39        43  43  43  43  43  43  43  43
  40        46  46  46  46  46  46  46  46
  41        50  50  50  50  50  50  50  50
 There are     9 symmetry adapted basis functions of B3U symmetry.
  42         7   7   7   7   7   7   7   7
  43        10  10  10  10  10  10  10  10
  44        13  13  13  13  13  13  13  13
  45        16  16  16  16  16  16  16  16
  46        19  19  19  19  19  19  19  19
  47        38  38  38  38  38  38  38  38
  48        42  42  42  42  42  42  42  42
  49        45  45  45  45  45  45  45  45
  50        49  49  49  49  49  49  49  49
 Order= 1 4 3 2 5 8 7 6
 Reordered character table:
              1            2            3            4            5
     1            1            1            1            1            1
     2            4            1           -1           -1            1
     3            3            1           -1            1           -1
     4            2            1            1           -1           -1
     5            5            1            1            1            1
     6            8            1           -1           -1            1
     7            7            1           -1            1           -1
     8            6            1            1           -1           -1
              6            7            8            9
     1            1            1            1            1
     2            1           -1           -1            1
     3            1           -1            1           -1
     4            1            1           -1           -1
     5           -1           -1           -1           -1
     6           -1            1            1           -1
     7           -1            1           -1            1
     8           -1           -1            1            1
    50 basis functions,   113 primitive gaussians,    59 cartesian basis functions
     9 alpha electrons        9 beta electrons
       nuclear repulsion energy         0.0000000000 Hartrees.
 IS=     1 IAt=     1 ISR=     1 T=0 IP=      1 IndIP=      1 IndIPD=      0 C=  6.517348D-01  0.000000D+00                             NZ=T
 IS=     1 IAt=     1 ISR=     1 T=0 IP=      2 IndIP=      2 IndIPD=      1 C=  1.219170D+00  0.000000D+00                             NZ=T
 IS=     1 IAt=     1 ISR=     1 T=0 IP=      3 IndIP=      3 IndIPD=      2 C=  2.107766D+00  0.000000D+00                             NZ=T
 IS=     1 IAt=     1 ISR=     1 T=0 IP=      4 IndIP=      4 IndIPD=      3 C=  3.420884D+00  0.000000D+00                             NZ=T
 IS=     1 IAt=     1 ISR=     1 T=0 IP=      5 IndIP=      5 IndIPD=      4 C=  5.214316D+00  0.000000D+00                             NZ=T
 IS=     1 IAt=     1 ISR=     1 T=0 IP=      6 IndIP=      6 IndIPD=      5 C=  7.296026D+00  0.000000D+00                             NZ=T
 IS=     1 IAt=     1 ISR=     1 T=0 IP=      7 IndIP=      7 IndIPD=      6 C=  8.790840D+00  0.000000D+00                             NZ=T
 IS=     1 IAt=     1 ISR=     1 T=0 IP=      8 IndIP=      8 IndIPD=      7 C=  8.030712D+00  0.000000D+00                             NZ=T
 IS=     1 IAt=     1 ISR=     1 T=0 IP=      9 IndIP=      9 IndIPD=      8 C=  4.196319D+00  0.000000D+00                             NZ=T
 IS=     1 IAt=     1 ISR=     1 T=0 IP=     10 IndIP=     10 IndIPD=      9 C=  7.715061D-01  0.000000D+00                             NZ=T
 IS=     1 IAt=     1 ISR=     1 T=0 IP=     11 IndIP=     11 IndIPD=     10 C=  1.674362D-02  0.000000D+00                             NZ=T
 IS=     2 IAt=     1 ISR=     2 T=0 IP=      1 IndIP=     12 IndIPD=      0 C= -2.971208D-02  0.000000D+00                             NZ=T
 IS=     2 IAt=     1 ISR=     2 T=0 IP=      2 IndIP=     13 IndIPD=      1 C= -1.000337D-01  0.000000D+00                             NZ=T
 IS=     2 IAt=     1 ISR=     2 T=0 IP=      3 IndIP=     14 IndIPD=      2 C= -3.783322D-01  0.000000D+00                             NZ=T
 IS=     2 IAt=     1 ISR=     2 T=0 IP=      4 IndIP=     15 IndIPD=      3 C= -8.388664D-01  0.000000D+00                             NZ=T
 IS=     2 IAt=     1 ISR=     2 T=0 IP=      5 IndIP=     16 IndIPD=      4 C= -1.258458D+00  0.000000D+00                             NZ=T
 IS=     2 IAt=     1 ISR=     2 T=0 IP=      6 IndIP=     17 IndIPD=      5 C= -5.073613D-02  0.000000D+00                             NZ=T
 IS=     2 IAt=     1 ISR=     2 T=0 IP=      7 IndIP=     18 IndIPD=      6 C=  1.612136D+00  0.000000D+00                             NZ=T
 IS=     2 IAt=     1 ISR=     2 T=0 IP=      8 IndIP=     19 IndIPD=      7 C=  1.013306D+00  0.000000D+00                             NZ=T
 IS=     3 IAt=     1 ISR=     3 T=0 IP=      1 IndIP=     20 IndIPD=      0 C=  7.138560D-04  0.000000D+00                             NZ=T
 IS=     3 IAt=     1 ISR=     3 T=0 IP=      2 IndIP=     21 IndIPD=      1 C=  8.813838D-03  0.000000D+00                             NZ=T
 IS=     3 IAt=     1 ISR=     3 T=0 IP=      3 IndIP=     22 IndIPD=      2 C=  1.867485D-02  0.000000D+00                             NZ=T
 IS=     3 IAt=     1 ISR=     3 T=0 IP=      4 IndIP=     23 IndIPD=      3 C=  5.568273D-02  0.000000D+00                             NZ=T
 IS=     3 IAt=     1 ISR=     3 T=0 IP=      5 IndIP=     24 IndIPD=      4 C=  1.116744D-02  0.000000D+00                             NZ=T
 IS=     3 IAt=     1 ISR=     3 T=0 IP=      6 IndIP=     25 IndIPD=      5 C= -2.381110D-01  0.000000D+00                             NZ=T
 IS=     3 IAt=     1 ISR=     3 T=0 IP=      7 IndIP=     26 IndIPD=      6 C= -6.348943D-01  0.000000D+00                             NZ=T
 IS=     3 IAt=     1 ISR=     3 T=0 IP=      8 IndIP=     27 IndIPD=      7 C=  5.114294D-01  0.000000D+00                             NZ=T
 IS=     4 IAt=     1 ISR=     4 T=0 IP=      1 IndIP=     28 IndIPD=      0 C=  8.150955D-01  0.000000D+00                             NZ=T
 IS=     5 IAt=     1 ISR=     5 T=0 IP=      1 IndIP=     29 IndIPD=      0 C=  2.094612D-01  0.000000D+00                             NZ=T
 IS=     6 IAt=     1 ISR=     6 T=0 IP=      1 IndIP=     30 IndIPD=      0 C=  9.542848D-02  0.000000D+00                             NZ=T
 IS=     7 IAt=     1 ISR=     7 T=1 IP=      1 IndIP=     31 IndIPD=      0 C=  0.000000D+00  1.388561D+01                             NZ=T
 IS=     7 IAt=     1 ISR=     7 T=1 IP=      2 IndIP=     32 IndIPD=      1 C=  0.000000D+00  1.838514D+01                             NZ=T
 IS=     7 IAt=     1 ISR=     7 T=1 IP=      3 IndIP=     33 IndIPD=      2 C=  0.000000D+00  2.041692D+01                             NZ=T
 IS=     7 IAt=     1 ISR=     7 T=1 IP=      4 IndIP=     34 IndIPD=      3 C=  0.000000D+00  1.711297D+01                             NZ=T
 IS=     7 IAt=     1 ISR=     7 T=1 IP=      5 IndIP=     35 IndIPD=      4 C=  0.000000D+00  9.165326D+00                             NZ=T
 IS=     7 IAt=     1 ISR=     7 T=1 IP=      6 IndIP=     36 IndIPD=      5 C=  0.000000D+00  2.363475D+00                             NZ=T
 IS=     8 IAt=     1 ISR=     8 T=1 IP=      1 IndIP=     37 IndIPD=      0 C=  0.000000D+00  4.688463D-02                             NZ=T
 IS=     8 IAt=     1 ISR=     8 T=1 IP=      2 IndIP=     38 IndIPD=      1 C=  0.000000D+00 -3.021420D-01                             NZ=T
 IS=     8 IAt=     1 ISR=     8 T=1 IP=      3 IndIP=     39 IndIPD=      2 C=  0.000000D+00 -4.101902D-01                             NZ=T
 IS=     8 IAt=     1 ISR=     8 T=1 IP=      4 IndIP=     40 IndIPD=      3 C=  0.000000D+00 -6.395899D-01                             NZ=T
 IS=     8 IAt=     1 ISR=     8 T=1 IP=      5 IndIP=     41 IndIPD=      4 C=  0.000000D+00  5.412891D-02                             NZ=T
 IS=     8 IAt=     1 ISR=     8 T=1 IP=      6 IndIP=     42 IndIPD=      5 C=  0.000000D+00  5.293195D-01                             NZ=T
 IS=     9 IAt=     1 ISR=     9 T=1 IP=      1 IndIP=     43 IndIPD=      0 C=  0.000000D+00  1.801458D+00                             NZ=T
 IS=    10 IAt=     1 ISR=    10 T=1 IP=      1 IndIP=     44 IndIPD=      0 C=  0.000000D+00  1.380704D-01                             NZ=T
 IS=    11 IAt=     1 ISR=    11 T=1 IP=      1 IndIP=     45 IndIPD=      0 C=  0.000000D+00  3.261004D-02                             NZ=T
 IS=    12 IAt=     1 ISR=    12 T=2 IP=      1 IndIP=     46 IndIPD=      1 C=  0.000000D+00  0.000000D+00  3.457651D-01  0.000000D+00 NZ=T
 IS=    13 IAt=     1 ISR=    13 T=2 IP=      1 IndIP=     47 IndIPD=      2 C=  0.000000D+00  0.000000D+00  2.445852D+00  0.000000D+00 NZ=T
 IS=    14 IAt=     1 ISR=    14 T=2 IP=      1 IndIP=     48 IndIPD=      3 C=  0.000000D+00  0.000000D+00  7.331810D-02  0.000000D+00 NZ=T
 IS=    15 IAt=     1 ISR=    15 T=3 IP=      1 IndIP=     49 IndIPD=      4 C=  0.000000D+00  0.000000D+00  0.000000D+00  1.132614D+00 NZ=T
 IS=    16 IAt=     1 ISR=    16 T=3 IP=      1 IndIP=     50 IndIPD=      5 C=  0.000000D+00  0.000000D+00  0.000000D+00  1.937037D-01 NZ=T
 IExCor=  402 DFT=T Ex+Corr=B3LYP ExCW=0 ScaHFX=  0.200000
 ScaDFX=  0.800000  0.720000  1.000000  0.810000 ScalE2=  1.000000  1.000000
 IRadAn=      5 IRanWt=     -1 IRanGd=            0 ICorTp=0 IEmpDi=  4
 NAtoms=    1 NActive=    1 NUniq=    1 SFac= 1.00D+00 NAtFMM=   60 NAOKFM=F Big=F
 Integral buffers will be    131072 words long.
 Raffenetti 2 integral format.
 Two-electron integral symmetry is turned on.
 Leave Link  301 at Wed Jul  9 12:53:21 2025, MaxMem=   536870912 cpu:               0.2 elap:               0.1
 (Enter /home/app/Gaussian/16.C.01/g16/l302.exe)
 NPDir=0 NMtPBC=     1 NCelOv=     1 NCel=       1 NClECP=     1 NCelD=      1
         NCelK=      1 NCelE2=     1 NClLst=     1 CellRange=     0.0.
 One-electron integrals computed using PRISM.
 One-electron integral symmetry used in STVInt
 Entering OneElI...
 Calculate overlap and kinetic energy integrals
    NBasis =  50  MinDer = 0  MaxDer = 0
 Requested accuracy = 0.1000D-12
 Symmetry will be used
 PrmmSu-InSpLW:  IPartL=    0 NPrtUS=    4 NPrtUL=    1 DoSpLW=F IThBeg=    0 IThEnd=    3 NThAct=    4.
 PrSmSu:  IncTry=   512 NBBP=            136 NTPThr=   100 NPartT=    4 Incr=           1 LDynOK=F GPUOK=F.
 PrsmSu:  NPrtUS=   4 ThrOK=T IAlg=1 LenDen=           0 ISkipM=0 DoSpLW=F IThBeg=    0 IThEnd=    3.
 Prism:   IPart=     0 DynPar=F LinDyn=F Incr=           1.
 PRISM was handed   134193221 working-precision words and   136 shell-pairs
 PRISM was handed   134193221 working-precision words and   136 shell-pairs
 PRISM was handed   134193221 working-precision words and   136 shell-pairs
 PRISM was handed   134193221 working-precision words and   136 shell-pairs
 IPart=  3 NShTot=          21 NBatch=          18 AvBLen=         1.2
 IPart=  2 NShTot=          27 NBatch=          24 AvBLen=         1.1
 IPart=  1 NShTot=          42 NBatch=          27 AvBLen=         1.6
 IPart=  0 NShTot=          46 NBatch=          28 AvBLen=         1.6
 PrSmSu:  NxtVal=              5.
 *** Overlap *** 
                1             2             3             4             5 
      1  0.100000D+01
      2  0.278141D+00  0.100000D+01
      3 -0.420057D-01  0.156300D+00  0.100000D+01
      4  0.154626D+00  0.757973D+00  0.679427D+00  0.100000D+01
      5  0.413951D-01  0.269828D+00  0.854247D+00  0.579240D+00  0.100000D+01
      6  0.189613D-01  0.128976D+00  0.538481D+00  0.304602D+00  0.821008D+00
      7  0.000000D+00  0.000000D+00  0.000000D+00  0.000000D+00  0.000000D+00
      8  0.000000D+00  0.000000D+00  0.000000D+00  0.000000D+00  0.000000D+00
      9  0.000000D+00  0.000000D+00  0.000000D+00  0.000000D+00  0.000000D+00
     10  0.000000D+00  0.000000D+00  0.000000D+00  0.000000D+00  0.000000D+00
     11  0.000000D+00  0.000000D+00  0.000000D+00  0.000000D+00  0.000000D+00
     12  0.000000D+00  0.000000D+00  0.000000D+00  0.000000D+00  0.000000D+00
     13  0.000000D+00  0.000000D+00  0.000000D+00  0.000000D+00  0.000000D+00
     14  0.000000D+00  0.000000D+00  0.000000D+00  0.000000D+00  0.000000D+00
     15  0.000000D+00  0.000000D+00  0.000000D+00  0.000000D+00  0.000000D+00
     16  0.000000D+00  0.000000D+00  0.000000D+00  0.000000D+00  0.000000D+00
     17  0.000000D+00  0.000000D+00  0.000000D+00  0.000000D+00  0.000000D+00
     18  0.000000D+00  0.000000D+00  0.000000D+00  0.000000D+00  0.000000D+00
     19  0.000000D+00  0.000000D+00  0.000000D+00  0.000000D+00  0.000000D+00
     20  0.000000D+00  0.000000D+00  0.000000D+00  0.000000D+00  0.000000D+00
     21  0.000000D+00  0.000000D+00  0.000000D+00  0.000000D+00  0.000000D+00
     22  0.000000D+00  0.000000D+00  0.000000D+00  0.000000D+00  0.000000D+00
     23  0.000000D+00  0.000000D+00  0.000000D+00  0.000000D+00  0.000000D+00
     24  0.000000D+00  0.000000D+00  0.000000D+00  0.000000D+00  0.000000D+00
     25  0.000000D+00  0.000000D+00  0.000000D+00  0.000000D+00  0.000000D+00
     26  0.000000D+00  0.000000D+00  0.000000D+00  0.000000D+00  0.000000D+00
     27  0.000000D+00  0.000000D+00  0.000000D+00  0.000000D+00  0.000000D+00
     28  0.000000D+00  0.000000D+00  0.000000D+00  0.000000D+00  0.000000D+00
     29  0.000000D+00  0.000000D+00  0.000000D+00  0.000000D+00  0.000000D+00
     30  0.000000D+00  0.000000D+00  0.000000D+00  0.000000D+00  0.000000D+00
     31  0.000000D+00  0.000000D+00  0.000000D+00  0.000000D+00  0.000000D+00
     32  0.000000D+00  0.000000D+00  0.000000D+00  0.000000D+00  0.000000D+00
     33  0.000000D+00  0.000000D+00  0.000000D+00  0.000000D+00  0.000000D+00
     34  0.000000D+00  0.000000D+00  0.000000D+00  0.000000D+00  0.000000D+00
     35  0.000000D+00  0.000000D+00  0.000000D+00  0.000000D+00  0.000000D+00
     36  0.000000D+00  0.000000D+00  0.000000D+00  0.000000D+00  0.000000D+00
     37  0.000000D+00  0.000000D+00  0.000000D+00  0.000000D+00  0.000000D+00
     38  0.000000D+00  0.000000D+00  0.000000D+00  0.000000D+00  0.000000D+00
     39  0.000000D+00  0.000000D+00  0.000000D+00  0.000000D+00  0.000000D+00
     40  0.000000D+00  0.000000D+00  0.000000D+00  0.000000D+00  0.000000D+00
     41  0.000000D+00  0.000000D+00  0.000000D+00  0.000000D+00  0.000000D+00
     42  0.000000D+00  0.000000D+00  0.000000D+00  0.000000D+00  0.000000D+00
     43  0.000000D+00  0.000000D+00  0.000000D+00  0.000000D+00  0.000000D+00
     44  0.000000D+00  0.000000D+00  0.000000D+00  0.000000D+00  0.000000D+00
     45  0.000000D+00  0.000000D+00  0.000000D+00  0.000000D+00  0.000000D+00
     46  0.000000D+00  0.000000D+00  0.000000D+00  0.000000D+00  0.000000D+00
     47  0.000000D+00  0.000000D+00  0.000000D+00  0.000000D+00  0.000000D+00
     48  0.000000D+00  0.000000D+00  0.000000D+00  0.000000D+00  0.000000D+00
     49  0.000000D+00  0.000000D+00  0.000000D+00  0.000000D+00  0.000000D+00
     50  0.000000D+00  0.000000D+00  0.000000D+00  0.000000D+00  0.000000D+00
                6             7             8             9            10 
      6  0.100000D+01
      7  0.000000D+00  0.100000D+01
      8  0.000000D+00  0.000000D+00  0.100000D+01
      9  0.000000D+00  0.000000D+00  0.000000D+00  0.100000D+01
     10  0.000000D+00  0.159683D+00  0.000000D+00  0.000000D+00  0.100000D+01
     11  0.000000D+00  0.000000D+00  0.159683D+00  0.000000D+00  0.000000D+00
     12  0.000000D+00  0.000000D+00  0.000000D+00  0.159683D+00  0.000000D+00
     13  0.000000D+00  0.459391D+00  0.000000D+00  0.000000D+00  0.743426D+00
     14  0.000000D+00  0.000000D+00  0.459391D+00  0.000000D+00  0.000000D+00
     15  0.000000D+00  0.000000D+00  0.000000D+00  0.459391D+00  0.000000D+00
     16  0.000000D+00  0.576694D-01  0.000000D+00  0.000000D+00  0.709046D+00
     17  0.000000D+00  0.000000D+00  0.576694D-01  0.000000D+00  0.000000D+00
     18  0.000000D+00  0.000000D+00  0.000000D+00  0.576694D-01  0.000000D+00
     19  0.000000D+00  0.144493D-01  0.000000D+00  0.000000D+00  0.270422D+00
     20  0.000000D+00  0.000000D+00  0.144493D-01  0.000000D+00  0.000000D+00
     21  0.000000D+00  0.000000D+00  0.000000D+00  0.144493D-01  0.000000D+00
     22  0.000000D+00  0.000000D+00  0.000000D+00  0.000000D+00  0.000000D+00
     23  0.000000D+00  0.000000D+00  0.000000D+00  0.000000D+00  0.000000D+00
     24  0.000000D+00  0.000000D+00  0.000000D+00  0.000000D+00  0.000000D+00
     25  0.000000D+00  0.000000D+00  0.000000D+00  0.000000D+00  0.000000D+00
     26  0.000000D+00  0.000000D+00  0.000000D+00  0.000000D+00  0.000000D+00
     27  0.000000D+00  0.000000D+00  0.000000D+00  0.000000D+00  0.000000D+00
     28  0.000000D+00  0.000000D+00  0.000000D+00  0.000000D+00  0.000000D+00
     29  0.000000D+00  0.000000D+00  0.000000D+00  0.000000D+00  0.000000D+00
     30  0.000000D+00  0.000000D+00  0.000000D+00  0.000000D+00  0.000000D+00
     31  0.000000D+00  0.000000D+00  0.000000D+00  0.000000D+00  0.000000D+00
     32  0.000000D+00  0.000000D+00  0.000000D+00  0.000000D+00  0.000000D+00
     33  0.000000D+00  0.000000D+00  0.000000D+00  0.000000D+00  0.000000D+00
     34  0.000000D+00  0.000000D+00  0.000000D+00  0.000000D+00  0.000000D+00
     35  0.000000D+00  0.000000D+00  0.000000D+00  0.000000D+00  0.000000D+00
     36  0.000000D+00  0.000000D+00  0.000000D+00  0.000000D+00  0.000000D+00
     37  0.000000D+00  0.000000D+00  0.000000D+00  0.000000D+00  0.000000D+00
     38  0.000000D+00  0.000000D+00  0.000000D+00  0.000000D+00  0.000000D+00
     39  0.000000D+00  0.000000D+00  0.000000D+00  0.000000D+00  0.000000D+00
     40  0.000000D+00  0.000000D+00  0.000000D+00  0.000000D+00  0.000000D+00
     41  0.000000D+00  0.000000D+00  0.000000D+00  0.000000D+00  0.000000D+00
     42  0.000000D+00  0.000000D+00  0.000000D+00  0.000000D+00  0.000000D+00
     43  0.000000D+00  0.000000D+00  0.000000D+00  0.000000D+00  0.000000D+00
     44  0.000000D+00  0.000000D+00  0.000000D+00  0.000000D+00  0.000000D+00
     45  0.000000D+00  0.000000D+00  0.000000D+00  0.000000D+00  0.000000D+00
     46  0.000000D+00  0.000000D+00  0.000000D+00  0.000000D+00  0.000000D+00
     47  0.000000D+00  0.000000D+00  0.000000D+00  0.000000D+00  0.000000D+00
     48  0.000000D+00  0.000000D+00  0.000000D+00  0.000000D+00  0.000000D+00
     49  0.000000D+00  0.000000D+00  0.000000D+00  0.000000D+00  0.000000D+00
     50  0.000000D+00  0.000000D+00  0.000000D+00  0.000000D+00  0.000000D+00
               11            12            13            14            15 
     11  0.100000D+01
     12  0.000000D+00  0.100000D+01
     13  0.000000D+00  0.000000D+00  0.100000D+01
     14  0.743426D+00  0.000000D+00  0.000000D+00  0.100000D+01
     15  0.000000D+00  0.743426D+00  0.000000D+00  0.000000D+00  0.100000D+01
     16  0.000000D+00  0.000000D+00  0.320755D+00  0.000000D+00  0.000000D+00
     17  0.709046D+00  0.000000D+00  0.000000D+00  0.320755D+00  0.000000D+00
     18  0.000000D+00  0.709046D+00  0.000000D+00  0.000000D+00  0.320755D+00
     19  0.000000D+00  0.000000D+00  0.927514D-01  0.000000D+00  0.000000D+00
     20  0.270422D+00  0.000000D+00  0.000000D+00  0.927514D-01  0.000000D+00
     21  0.000000D+00  0.270422D+00  0.000000D+00  0.000000D+00  0.927514D-01
     22  0.000000D+00  0.000000D+00  0.000000D+00  0.000000D+00  0.000000D+00
     23  0.000000D+00  0.000000D+00  0.000000D+00  0.000000D+00  0.000000D+00
     24  0.000000D+00  0.000000D+00  0.000000D+00  0.000000D+00  0.000000D+00
     25  0.000000D+00  0.000000D+00  0.000000D+00  0.000000D+00  0.000000D+00
     26  0.000000D+00  0.000000D+00  0.000000D+00  0.000000D+00  0.000000D+00
     27  0.000000D+00  0.000000D+00  0.000000D+00  0.000000D+00  0.000000D+00
     28  0.000000D+00  0.000000D+00  0.000000D+00  0.000000D+00  0.000000D+00
     29  0.000000D+00  0.000000D+00  0.000000D+00  0.000000D+00  0.000000D+00
     30  0.000000D+00  0.000000D+00  0.000000D+00  0.000000D+00  0.000000D+00
     31  0.000000D+00  0.000000D+00  0.000000D+00  0.000000D+00  0.000000D+00
     32  0.000000D+00  0.000000D+00  0.000000D+00  0.000000D+00  0.000000D+00
     33  0.000000D+00  0.000000D+00  0.000000D+00  0.000000D+00  0.000000D+00
     34  0.000000D+00  0.000000D+00  0.000000D+00  0.000000D+00  0.000000D+00
     35  0.000000D+00  0.000000D+00  0.000000D+00  0.000000D+00  0.000000D+00
     36  0.000000D+00  0.000000D+00  0.000000D+00  0.000000D+00  0.000000D+00
     37  0.000000D+00  0.000000D+00  0.000000D+00  0.000000D+00  0.000000D+00
     38  0.000000D+00  0.000000D+00  0.000000D+00  0.000000D+00  0.000000D+00
     39  0.000000D+00  0.000000D+00  0.000000D+00  0.000000D+00  0.000000D+00
     40  0.000000D+00  0.000000D+00  0.000000D+00  0.000000D+00  0.000000D+00
     41  0.000000D+00  0.000000D+00  0.000000D+00  0.000000D+00  0.000000D+00
     42  0.000000D+00  0.000000D+00  0.000000D+00  0.000000D+00  0.000000D+00
     43  0.000000D+00  0.000000D+00  0.000000D+00  0.000000D+00  0.000000D+00
     44  0.000000D+00  0.000000D+00  0.000000D+00  0.000000D+00  0.000000D+00
     45  0.000000D+00  0.000000D+00  0.000000D+00  0.000000D+00  0.000000D+00
     46  0.000000D+00  0.000000D+00  0.000000D+00  0.000000D+00  0.000000D+00
     47  0.000000D+00  0.000000D+00  0.000000D+00  0.000000D+00  0.000000D+00
     48  0.000000D+00  0.000000D+00  0.000000D+00  0.000000D+00  0.000000D+00
     49  0.000000D+00  0.000000D+00  0.000000D+00  0.000000D+00  0.000000D+00
     50  0.000000D+00  0.000000D+00  0.000000D+00  0.000000D+00  0.000000D+00
               16            17            18            19            20 
     16  0.100000D+01
     17  0.000000D+00  0.100000D+01
     18  0.000000D+00  0.000000D+00  0.100000D+01
     19  0.673500D+00  0.000000D+00  0.000000D+00  0.100000D+01
     20  0.000000D+00  0.673500D+00  0.000000D+00  0.000000D+00  0.100000D+01
     21  0.000000D+00  0.000000D+00  0.673500D+00  0.000000D+00  0.000000D+00
     22  0.000000D+00  0.000000D+00  0.000000D+00  0.000000D+00  0.000000D+00
     23  0.000000D+00  0.000000D+00  0.000000D+00  0.000000D+00  0.000000D+00
     24  0.000000D+00  0.000000D+00  0.000000D+00  0.000000D+00  0.000000D+00
     25  0.000000D+00  0.000000D+00  0.000000D+00  0.000000D+00  0.000000D+00
     26  0.000000D+00  0.000000D+00  0.000000D+00  0.000000D+00  0.000000D+00
     27  0.000000D+00  0.000000D+00  0.000000D+00  0.000000D+00  0.000000D+00
     28  0.000000D+00  0.000000D+00  0.000000D+00  0.000000D+00  0.000000D+00
     29  0.000000D+00  0.000000D+00  0.000000D+00  0.000000D+00  0.000000D+00
     30  0.000000D+00  0.000000D+00  0.000000D+00  0.000000D+00  0.000000D+00
     31  0.000000D+00  0.000000D+00  0.000000D+00  0.000000D+00  0.000000D+00
     32  0.000000D+00  0.000000D+00  0.000000D+00  0.000000D+00  0.000000D+00
     33  0.000000D+00  0.000000D+00  0.000000D+00  0.000000D+00  0.000000D+00
     34  0.000000D+00  0.000000D+00  0.000000D+00  0.000000D+00  0.000000D+00
     35  0.000000D+00  0.000000D+00  0.000000D+00  0.000000D+00  0.000000D+00
     36  0.000000D+00  0.000000D+00  0.000000D+00  0.000000D+00  0.000000D+00
     37  0.000000D+00  0.000000D+00  0.000000D+00  0.000000D+00  0.000000D+00
     38  0.000000D+00  0.000000D+00  0.000000D+00  0.000000D+00  0.000000D+00
     39  0.000000D+00  0.000000D+00  0.000000D+00  0.000000D+00  0.000000D+00
     40  0.000000D+00  0.000000D+00  0.000000D+00  0.000000D+00  0.000000D+00
     41  0.000000D+00  0.000000D+00  0.000000D+00  0.000000D+00  0.000000D+00
     42  0.000000D+00  0.000000D+00  0.000000D+00  0.000000D+00  0.000000D+00
     43  0.000000D+00  0.000000D+00  0.000000D+00  0.000000D+00  0.000000D+00
     44  0.000000D+00  0.000000D+00  0.000000D+00  0.000000D+00  0.000000D+00
     45  0.000000D+00  0.000000D+00  0.000000D+00  0.000000D+00  0.000000D+00
     46  0.000000D+00  0.000000D+00  0.000000D+00  0.000000D+00  0.000000D+00
     47  0.000000D+00  0.000000D+00  0.000000D+00  0.000000D+00  0.000000D+00
     48  0.000000D+00  0.000000D+00  0.000000D+00  0.000000D+00  0.000000D+00
     49  0.000000D+00  0.000000D+00  0.000000D+00  0.000000D+00  0.000000D+00
     50  0.000000D+00  0.000000D+00  0.000000D+00  0.000000D+00  0.000000D+00
               21            22            23            24            25 
     21  0.100000D+01
     22  0.000000D+00  0.100000D+01
     23  0.000000D+00  0.000000D+00  0.100000D+01
     24  0.000000D+00  0.000000D+00  0.000000D+00  0.100000D+01
     25  0.000000D+00  0.000000D+00  0.000000D+00  0.000000D+00  0.100000D+01
     26  0.000000D+00  0.000000D+00  0.000000D+00  0.000000D+00  0.000000D+00
     27  0.000000D+00  0.594239D+00  0.000000D+00  0.000000D+00  0.000000D+00
     28  0.000000D+00  0.000000D+00  0.594239D+00  0.000000D+00  0.000000D+00
     29  0.000000D+00  0.000000D+00  0.000000D+00  0.594239D+00  0.000000D+00
     30  0.000000D+00  0.000000D+00  0.000000D+00  0.000000D+00  0.594239D+00
     31  0.000000D+00  0.000000D+00  0.000000D+00  0.000000D+00  0.000000D+00
     32  0.000000D+00  0.716809D+00  0.000000D+00  0.000000D+00  0.000000D+00
     33  0.000000D+00  0.000000D+00  0.716809D+00  0.000000D+00  0.000000D+00
     34  0.000000D+00  0.000000D+00  0.000000D+00  0.716809D+00  0.000000D+00
     35  0.000000D+00  0.000000D+00  0.000000D+00  0.000000D+00  0.716809D+00
     36  0.000000D+00  0.000000D+00  0.000000D+00  0.000000D+00  0.000000D+00
     37  0.000000D+00  0.000000D+00  0.000000D+00  0.000000D+00  0.000000D+00
     38  0.000000D+00  0.000000D+00  0.000000D+00  0.000000D+00  0.000000D+00
     39  0.000000D+00  0.000000D+00  0.000000D+00  0.000000D+00  0.000000D+00
     40  0.000000D+00  0.000000D+00  0.000000D+00  0.000000D+00  0.000000D+00
     41  0.000000D+00  0.000000D+00  0.000000D+00  0.000000D+00  0.000000D+00
     42  0.000000D+00  0.000000D+00  0.000000D+00  0.000000D+00  0.000000D+00
     43  0.000000D+00  0.000000D+00  0.000000D+00  0.000000D+00  0.000000D+00
     44  0.000000D+00  0.000000D+00  0.000000D+00  0.000000D+00  0.000000D+00
     45  0.000000D+00  0.000000D+00  0.000000D+00  0.000000D+00  0.000000D+00
     46  0.000000D+00  0.000000D+00  0.000000D+00  0.000000D+00  0.000000D+00
     47  0.000000D+00  0.000000D+00  0.000000D+00  0.000000D+00  0.000000D+00
     48  0.000000D+00  0.000000D+00  0.000000D+00  0.000000D+00  0.000000D+00
     49  0.000000D+00  0.000000D+00  0.000000D+00  0.000000D+00  0.000000D+00
     50  0.000000D+00  0.000000D+00  0.000000D+00  0.000000D+00  0.000000D+00
               26            27            28            29            30 
     26  0.100000D+01
     27  0.000000D+00  0.100000D+01
     28  0.000000D+00  0.000000D+00  0.100000D+01
     29  0.000000D+00  0.000000D+00  0.000000D+00  0.100000D+01
     30  0.000000D+00  0.000000D+00  0.000000D+00  0.000000D+00  0.100000D+01
     31  0.594239D+00  0.000000D+00  0.000000D+00  0.000000D+00  0.000000D+00
     32  0.000000D+00  0.217876D+00  0.000000D+00  0.000000D+00  0.000000D+00
     33  0.000000D+00  0.000000D+00  0.217876D+00  0.000000D+00  0.000000D+00
     34  0.000000D+00  0.000000D+00  0.000000D+00  0.217876D+00  0.000000D+00
     35  0.000000D+00  0.000000D+00  0.000000D+00  0.000000D+00  0.217876D+00
     36  0.716809D+00  0.000000D+00  0.000000D+00  0.000000D+00  0.000000D+00
     37  0.000000D+00  0.000000D+00  0.000000D+00  0.000000D+00  0.000000D+00
     38  0.000000D+00  0.000000D+00  0.000000D+00  0.000000D+00  0.000000D+00
     39  0.000000D+00  0.000000D+00  0.000000D+00  0.000000D+00  0.000000D+00
     40  0.000000D+00  0.000000D+00  0.000000D+00  0.000000D+00  0.000000D+00
     41  0.000000D+00  0.000000D+00  0.000000D+00  0.000000D+00  0.000000D+00
     42  0.000000D+00  0.000000D+00  0.000000D+00  0.000000D+00  0.000000D+00
     43  0.000000D+00  0.000000D+00  0.000000D+00  0.000000D+00  0.000000D+00
     44  0.000000D+00  0.000000D+00  0.000000D+00  0.000000D+00  0.000000D+00
[...]
  27       13D 0        0.00000   0.00000   0.00000   0.00000   0.00000
  28       13D+1        0.00000   0.00000   0.00000   0.00000   0.00000
  29       13D-1        0.00000   0.00000   0.00000   0.00000   0.00000
  30       13D+2        0.00000   0.00000   0.00000   0.00000   0.00000
  31       13D-2        0.00000   0.00000   0.00000   0.00000   0.00000
  32       14D 0        0.00000   0.00000   0.00000   0.00000   0.00000
  33       14D+1        0.00000   0.00000   0.00000   0.00000   0.00000
  34       14D-1        0.00000   0.00000   0.00000   0.00000   0.00000
  35       14D+2        0.00000   0.00000   0.00000   0.00000   0.00000
  36       14D-2        0.00000   0.00000   0.00000   0.00000   0.00000
  37       15F 0        0.00000   0.00000  -0.00000  -0.00000   0.00000
  38       15F+1        0.00000  -0.00000  -0.00000   0.00000  -0.00000
  39       15F-1        0.00000  -0.00000  -0.00000  -0.00000  -0.00000
  40       15F+2       -0.00000  -0.00000  -0.00000  -0.00000   0.00000
  41       15F-2        0.00000  -0.00000   0.00000   0.00000  -0.00000
  42       15F+3        0.00000   0.00000   0.00000  -0.00000   0.00000
  43       15F-3        0.00000   0.00000  -0.00000   0.00000   0.00000
  44       16F 0       -0.00000   0.00000  -0.00000  -0.00000   0.00000
  45       16F+1       -0.00000  -0.00000   0.00000  -0.00000  -0.00000
  46       16F-1        0.00000   0.00000   0.00000   0.00000  -0.00000
  47       16F+2       -0.00000  -0.00000  -0.00000  -0.00000  -0.00000
  48       16F-2        0.00000   0.00000  -0.00000   0.00000   0.00000
  49       16F+3        0.00000  -0.00000   0.00000   0.00000  -0.00000
  50       16F-3        0.00000   0.00000   0.00000   0.00000   0.00000
                          16        17        18        19        20
  16       10PX         0.20742
  17       10PY         0.00000   0.20742
  18       10PZ        -0.00000  -0.00000   0.20742
  19       11PX         0.00828  -0.00000   0.00000   0.00073
  20       11PY         0.00000   0.00828   0.00000  -0.00000   0.00073
  21       11PZ         0.00000  -0.00000   0.00828  -0.00000  -0.00000
  22       12D 0        0.00000   0.00000   0.00000   0.00000   0.00000
  23       12D+1        0.00000   0.00000   0.00000   0.00000   0.00000
  24       12D-1        0.00000   0.00000   0.00000   0.00000   0.00000
  25       12D+2        0.00000   0.00000   0.00000   0.00000   0.00000
  26       12D-2        0.00000   0.00000   0.00000   0.00000   0.00000
  27       13D 0        0.00000   0.00000   0.00000   0.00000   0.00000
  28       13D+1        0.00000   0.00000   0.00000   0.00000   0.00000
  29       13D-1        0.00000   0.00000   0.00000   0.00000   0.00000
  30       13D+2        0.00000   0.00000   0.00000   0.00000   0.00000
  31       13D-2        0.00000   0.00000   0.00000   0.00000   0.00000
  32       14D 0        0.00000   0.00000   0.00000   0.00000   0.00000
  33       14D+1        0.00000   0.00000   0.00000   0.00000   0.00000
  34       14D-1        0.00000   0.00000   0.00000   0.00000   0.00000
  35       14D+2        0.00000   0.00000   0.00000   0.00000   0.00000
  36       14D-2        0.00000   0.00000   0.00000   0.00000   0.00000
  37       15F 0       -0.00000  -0.00000  -0.00000  -0.00000  -0.00000
  38       15F+1       -0.00000   0.00000  -0.00000   0.00000   0.00000
  39       15F-1       -0.00000  -0.00000  -0.00000   0.00000   0.00000
  40       15F+2       -0.00000  -0.00000   0.00000  -0.00000  -0.00000
  41       15F-2        0.00000   0.00000  -0.00000   0.00000   0.00000
  42       15F+3       -0.00000   0.00000   0.00000   0.00000   0.00000
  43       15F-3        0.00000  -0.00000   0.00000   0.00000   0.00000
  44       16F 0       -0.00000  -0.00000  -0.00000  -0.00000   0.00000
  45       16F+1       -0.00000  -0.00000   0.00000  -0.00000  -0.00000
  46       16F-1        0.00000  -0.00000  -0.00000  -0.00000  -0.00000
  47       16F+2       -0.00000  -0.00000  -0.00000  -0.00000  -0.00000
  48       16F-2       -0.00000   0.00000   0.00000  -0.00000  -0.00000
  49       16F+3        0.00000   0.00000  -0.00000   0.00000   0.00000
  50       16F-3        0.00000   0.00000   0.00000   0.00000   0.00000
                          21        22        23        24        25
  21       11PZ         0.00073
  22       12D 0        0.00000   0.00000
  23       12D+1        0.00000  -0.00000   0.00000
  24       12D-1        0.00000  -0.00000   0.00000   0.00000
  25       12D+2        0.00000  -0.00000  -0.00000   0.00000   0.00000
  26       12D-2        0.00000  -0.00000   0.00000   0.00000  -0.00000
  27       13D 0        0.00000  -0.00000  -0.00000  -0.00000  -0.00000
  28       13D+1        0.00000   0.00000  -0.00000   0.00000  -0.00000
  29       13D-1        0.00000   0.00000  -0.00000  -0.00000  -0.00000
  30       13D+2        0.00000  -0.00000  -0.00000  -0.00000  -0.00000
  31       13D-2        0.00000   0.00000  -0.00000   0.00000   0.00000
  32       14D 0        0.00000  -0.00000   0.00000   0.00000   0.00000
  33       14D+1        0.00000   0.00000  -0.00000   0.00000   0.00000
  34       14D-1        0.00000   0.00000   0.00000  -0.00000   0.00000
  35       14D+2        0.00000  -0.00000   0.00000   0.00000  -0.00000
  36       14D-2        0.00000   0.00000  -0.00000   0.00000   0.00000
  37       15F 0        0.00000   0.00000   0.00000   0.00000   0.00000
  38       15F+1        0.00000   0.00000   0.00000   0.00000   0.00000
  39       15F-1       -0.00000   0.00000   0.00000   0.00000   0.00000
  40       15F+2        0.00000   0.00000   0.00000   0.00000   0.00000
  41       15F-2       -0.00000   0.00000   0.00000   0.00000   0.00000
  42       15F+3        0.00000   0.00000   0.00000   0.00000   0.00000
  43       15F-3        0.00000   0.00000   0.00000   0.00000   0.00000
  44       16F 0        0.00000   0.00000   0.00000   0.00000   0.00000
  45       16F+1        0.00000   0.00000   0.00000   0.00000   0.00000
  46       16F-1       -0.00000   0.00000   0.00000   0.00000   0.00000
  47       16F+2        0.00000   0.00000   0.00000   0.00000   0.00000
  48       16F-2        0.00000   0.00000   0.00000   0.00000   0.00000
  49       16F+3        0.00000   0.00000   0.00000   0.00000   0.00000
  50       16F-3        0.00000   0.00000   0.00000   0.00000   0.00000
                          26        27        28        29        30
  26       12D-2        0.00000
  27       13D 0       -0.00000   0.00000
  28       13D+1       -0.00000  -0.00000   0.00000
  29       13D-1       -0.00000  -0.00000   0.00000   0.00000
  30       13D+2        0.00000   0.00000   0.00000   0.00000   0.00000
  31       13D-2       -0.00000  -0.00000   0.00000  -0.00000   0.00000
  32       14D 0       -0.00000   0.00000  -0.00000  -0.00000  -0.00000
  33       14D+1       -0.00000  -0.00000   0.00000   0.00000  -0.00000
  34       14D-1       -0.00000  -0.00000  -0.00000   0.00000   0.00000
  35       14D+2        0.00000   0.00000  -0.00000  -0.00000   0.00000
  36       14D-2       -0.00000   0.00000   0.00000   0.00000   0.00000
  37       15F 0        0.00000   0.00000   0.00000   0.00000   0.00000
  38       15F+1        0.00000   0.00000   0.00000   0.00000   0.00000
  39       15F-1        0.00000   0.00000   0.00000   0.00000   0.00000
  40       15F+2        0.00000   0.00000   0.00000   0.00000   0.00000
  41       15F-2        0.00000   0.00000   0.00000   0.00000   0.00000
  42       15F+3        0.00000   0.00000   0.00000   0.00000   0.00000
  43       15F-3        0.00000   0.00000   0.00000   0.00000   0.00000
  44       16F 0        0.00000   0.00000   0.00000   0.00000   0.00000
  45       16F+1        0.00000   0.00000   0.00000   0.00000   0.00000
  46       16F-1        0.00000   0.00000   0.00000   0.00000   0.00000
  47       16F+2        0.00000   0.00000   0.00000   0.00000   0.00000
  48       16F-2        0.00000   0.00000   0.00000   0.00000   0.00000
  49       16F+3        0.00000   0.00000   0.00000   0.00000   0.00000
  50       16F-3        0.00000   0.00000   0.00000   0.00000   0.00000
                          31        32        33        34        35
  31       13D-2        0.00000
  32       14D 0       -0.00000   0.00000
  33       14D+1       -0.00000  -0.00000   0.00000
  34       14D-1       -0.00000  -0.00000  -0.00000   0.00000
  35       14D+2       -0.00000   0.00000   0.00000   0.00000   0.00000
  36       14D-2        0.00000  -0.00000   0.00000   0.00000   0.00000
  37       15F 0        0.00000   0.00000   0.00000   0.00000   0.00000
  38       15F+1        0.00000   0.00000   0.00000   0.00000   0.00000
  39       15F-1        0.00000   0.00000   0.00000   0.00000   0.00000
  40       15F+2        0.00000   0.00000   0.00000   0.00000   0.00000
  41       15F-2        0.00000   0.00000   0.00000   0.00000   0.00000
  42       15F+3        0.00000   0.00000   0.00000   0.00000   0.00000
  43       15F-3        0.00000   0.00000   0.00000   0.00000   0.00000
  44       16F 0        0.00000   0.00000   0.00000   0.00000   0.00000
  45       16F+1        0.00000   0.00000   0.00000   0.00000   0.00000
  46       16F-1        0.00000   0.00000   0.00000   0.00000   0.00000
  47       16F+2        0.00000   0.00000   0.00000   0.00000   0.00000
  48       16F-2        0.00000   0.00000   0.00000   0.00000   0.00000
  49       16F+3        0.00000   0.00000   0.00000   0.00000   0.00000
  50       16F-3        0.00000   0.00000   0.00000   0.00000   0.00000
                          36        37        38        39        40
  36       14D-2        0.00000
  37       15F 0        0.00000   0.00000
  38       15F+1        0.00000  -0.00000   0.00000
  39       15F-1        0.00000   0.00000  -0.00000   0.00000
  40       15F+2        0.00000  -0.00000   0.00000  -0.00000   0.00000
  41       15F-2        0.00000  -0.00000   0.00000  -0.00000  -0.00000
  42       15F+3        0.00000   0.00000  -0.00000  -0.00000   0.00000
  43       15F-3        0.00000  -0.00000  -0.00000  -0.00000   0.00000
  44       16F 0        0.00000   0.00000  -0.00000   0.00000  -0.00000
  45       16F+1        0.00000  -0.00000   0.00000   0.00000   0.00000
  46       16F-1        0.00000  -0.00000  -0.00000   0.00000   0.00000
  47       16F+2        0.00000   0.00000   0.00000  -0.00000  -0.00000
  48       16F-2        0.00000  -0.00000  -0.00000   0.00000  -0.00000
  49       16F+3        0.00000   0.00000  -0.00000  -0.00000   0.00000
  50       16F-3        0.00000  -0.00000  -0.00000  -0.00000  -0.00000
                          41        42        43        44        45
  41       15F-2        0.00000
  42       15F+3        0.00000   0.00000
  43       15F-3       -0.00000  -0.00000   0.00000
  44       16F 0       -0.00000   0.00000   0.00000   0.00000
  45       16F+1        0.00000  -0.00000  -0.00000  -0.00000   0.00000
  46       16F-1        0.00000   0.00000  -0.00000   0.00000   0.00000
  47       16F+2        0.00000   0.00000   0.00000  -0.00000   0.00000
  48       16F-2        0.00000   0.00000  -0.00000   0.00000  -0.00000
  49       16F+3        0.00000   0.00000  -0.00000   0.00000   0.00000
  50       16F-3        0.00000   0.00000   0.00000   0.00000  -0.00000
                          46        47        48        49        50
  46       16F-1        0.00000
  47       16F+2       -0.00000   0.00000
  48       16F-2       -0.00000   0.00000   0.00000
  49       16F+3       -0.00000   0.00000  -0.00000   0.00000
  50       16F-3        0.00000   0.00000  -0.00000   0.00000   0.00000
     Gross orbital populations:
                           1
   1 1   Ar 1S          2.00002
   2        2S          1.85834
   3        3S          1.19577
   4        4S          0.26130
   5        5S          0.67450
   6        6S          0.01007
   7        7PX         1.95968
   8        7PY         1.95968
   9        7PZ         1.95968
  10        8PX         1.03699
  11        8PY         1.03699
  12        8PZ         1.03699
  13        9PX         0.47186
  14        9PY         0.47186
  15        9PZ         0.47186
  16       10PX         0.51595
  17       10PY         0.51595
  18       10PZ         0.51595
  19       11PX         0.01552
  20       11PY         0.01552
  21       11PZ         0.01552
  22       12D 0        0.00000
  23       12D+1        0.00000
  24       12D-1        0.00000
  25       12D+2        0.00000
  26       12D-2        0.00000
  27       13D 0        0.00000
  28       13D+1        0.00000
  29       13D-1        0.00000
  30       13D+2        0.00000
  31       13D-2        0.00000
  32       14D 0       -0.00000
  33       14D+1        0.00000
  34       14D-1       -0.00000
  35       14D+2       -0.00000
  36       14D-2        0.00000
  37       15F 0        0.00000
  38       15F+1        0.00000
  39       15F-1        0.00000
  40       15F+2        0.00000
  41       15F-2        0.00000
  42       15F+3        0.00000
  43       15F-3        0.00000
  44       16F 0        0.00000
  45       16F+1        0.00000
  46       16F-1        0.00000
  47       16F+2        0.00000
  48       16F-2        0.00000
  49       16F+3        0.00000
  50       16F-3        0.00000
          Condensed to atoms (all electrons):
               1
     1  Ar  18.000000
 Mulliken charges:
               1
     1  Ar   0.000000
 Sum of Mulliken charges =   0.00000
 Mulliken charges with hydrogens summed into heavy atoms:
               1
     1  Ar   0.000000
 GSVD:  LWork=       -2900 too small for GESVD, short by       13250 words or       13250 for optimal perf.
 Atomic Valencies and Mayer Atomic Bond Orders:
               1
     1  Ar   0.000000
 Lowdin Atomic Charges:
               1
     1  Ar  -0.000000
 Sum of Lowdin charges  =  -0.00000
 Lowdin atomic charges with hydrogens summed into heavy atoms:
               1
     1  Ar  -0.000000
 Sum of Lowdin charges  =  -0.00000
 Dipole moment from Lowdin charges (Debye):
    X=     0.0000    Y=     0.0000    Z=     0.0000  Tot=     0.0000
 Electronic spatial extent (au):  <R**2>=             26.2347
 Charge=             -0.0000 electrons
 Dipole moment (field-independent basis, Debye):
    X=              0.0000    Y=              0.0000    Z=              0.0000  Tot=              0.0000
 Quadrupole moment (field-independent basis, Debye-Ang):
   XX=            -11.7622   YY=            -11.7622   ZZ=            -11.7622
   XY=             -0.0000   XZ=             -0.0000   YZ=             -0.0000
 Traceless Quadrupole moment (field-independent basis, Debye-Ang):
   XX=              0.0000   YY=              0.0000   ZZ=              0.0000
   XY=             -0.0000   XZ=             -0.0000   YZ=             -0.0000
 Octapole moment (field-independent basis, Debye-Ang**2):
  XXX=              0.0000  YYY=              0.0000  ZZZ=              0.0000  XYY=              0.0000
  XXY=              0.0000  XXZ=              0.0000  XZZ=              0.0000  YZZ=              0.0000
  YYZ=              0.0000  XYZ=              0.0000
 Hexadecapole moment (field-independent basis, Debye-Ang**3):
 XXXX=            -11.4030 YYYY=            -11.4030 ZZZZ=            -11.4030 XXXY=              0.0000
 XXXZ=             -0.0000 YYYX=             -0.0000 YYYZ=              0.0000 ZZZX=              0.0000
 ZZZY=             -0.0000 XXYY=             -3.8010 XXZZ=             -3.8010 YYZZ=             -3.8010
 XXYZ=             -0.0000 YYXZ=             -0.0000 ZZXY=             -0.0000
 N-N= 0.000000000000D+00 E-N=-1.254448481765D+03  KE= 5.262146472922D+02
 Symmetry AG   KE= 3.655796092985D+02
 Symmetry B1G  KE= 3.855199443167D-61
 Symmetry B2G  KE= 3.785322282892D-61
 Symmetry B3G  KE= 3.709317501148D-61
 Symmetry AU   KE= 2.585112118846D-53
 Symmetry B1U  KE= 5.354501266457D+01
 Symmetry B2U  KE= 5.354501266457D+01
 Symmetry B3U  KE= 5.354501266457D+01
 Orbital energies and kinetic energies (alpha):
                                 1                 2
   1         (A1G)--O       -115.121549        154.044809
   2         (A1G)--O        -11.145049         24.731680
   3         (T1U)--O         -8.696196         23.791528
   4         (T1U)--O         -8.696196         23.791528
   5         (T1U)--O         -8.696196         23.791528
   6         (A1G)--O         -0.971314          4.013316
   7         (T1U)--O         -0.429285          2.980978
   8         (T1U)--O         -0.429285          2.980978
   9         (T1U)--O         -0.429285          2.980978
  10         (A1G)--V          0.048039          0.574305
  11         (T1U)--V          0.072713          0.367231
  12         (T1U)--V          0.072713          0.367231
  13         (T1U)--V          0.072713          0.367231
  14         (T2G)--V          0.263877          0.781505
  15         (T2G)--V          0.263877          0.781505
  16         (T2G)--V          0.263877          0.781505
  17         (EG)--V           0.263877          0.781505
  18         (EG)--V           0.263877          0.781505
  19         (T1U)--V          0.547730          1.954021
  20         (T1U)--V          0.547730          1.954021
  21         (T1U)--V          0.547730          1.954021
  22         (T2G)--V          0.829627          2.088956
  23         (T2G)--V          0.829627          2.088956
  24         (T2G)--V          0.829627          2.088956
  25         (EG)--V           0.829627          2.088956
  26         (EG)--V           0.829627          2.088956
  27         (A1G)--V          0.856017          3.719847
  28         (T2U)--V          1.258120          1.709184
  29         (T2U)--V          1.258120          1.709184
  30         (T2U)--V          1.258120          1.709184
  31         (A2U)--V          1.258120          1.709184
  32         (T1U)--V          1.258120          1.709184
  33         (T1U)--V          1.258120          1.709184
  34         (T1U)--V          1.258120          1.709184
  35         (T2G)--V          2.533602          5.044170
  36         (T2G)--V          2.533602          5.044170
  37         (T2G)--V          2.533602          5.044170
  38         (EG)--V           2.533602          5.044170
  39         (EG)--V           2.533602          5.044170
  40         (T1U)--V          2.642584          9.789035
  41         (T1U)--V          2.642584          9.789035
  42         (T1U)--V          2.642584          9.789035
  43         (T2U)--V          3.398761          4.964955
  44         (T2U)--V          3.398761          4.964955
  45         (T2U)--V          3.398761          4.964955
  46         (A2U)--V          3.398761          4.964955
  47         (T1U)--V          3.398761          4.964955
  48         (T1U)--V          3.398761          4.964955
  49         (T1U)--V          3.398761          4.964955
  50         (A1G)--V          5.538114         17.261945
 Total kinetic energy from orbitals= 5.262146472922D+02
 No NMR shielding tensors so no spin-rotation constants.
 Leave Link  601 at Wed Jul  9 12:53:22 2025, MaxMem=   536870912 cpu:               0.4 elap:               0.1
 (Enter /home/app/Gaussian/16.C.01/g16/l9999.exe)

 Test job not archived.
 1\1\GINC-GENKAI0002\SP\RB3LYP\Aug-CC-pVTZ\Ar1\KU50001398\09-Jul-2025\0
 \\#p B3LYP/aug-cc-pVTZ IOp(3/33=1,6/80=1) SCF=Tight Pop=Full\\Ar atom 
 BEB calculation with kinetic energies\\0,1\Ar,0,0.,0.,0.\\Version=ES64
 L-G16RevC.01\State=1-A1G\HF=-527.560002\RMSD=6.728e-09\Dipole=0.,0.,0.
 \Quadrupole=0.,0.,0.,0.,0.,0.\PG=OH [O(Ar1)]\\@


 YOU WILL NEVER "FIND" TIME FOR ANYTHING.
 IF YOU WANT TIME, YOU MUST MAKE IT.

                        -- CHARLES BIXTON
 Job cpu time:       0 days  0 hours  0 minutes  4.2 seconds.
 Elapsed time:       0 days  0 hours  0 minutes  1.2 seconds.
 File lengths (MBytes):  RWF=      6 Int=      0 D2E=      0 Chk=      1 Scr=      1
 Normal termination of Gaussian 16 at Wed Jul  9 12:53:22 2025.
