 Entering Gaussian System, Link 0=g16
 Input=kr_beb.gjf
 Output=kr_beb.log
 Initial command:
 /home/app/Gaussian/16.C.01/g16/l1.exe "/home/pj25000080/ku50001398/Gau-234144.inp" -scrdir="/home/pj25000080/ku50001398/"
 Entering Link 1 = /home/app/Gaussian/16.C.01/g16/l1.exe PID=    234145.
  
 Copyright (c) 1988-2019, Gaussian, Inc.  All Rights Reserved.
  
 This is part of the Gaussian(R) 16 program.  It is based on
 the Gaussian(R) 09 system (copyright 2009, Gaussian, Inc.),
 the Gaussian(R) 03 system (copyright 2003, Gaussian, Inc.),
 the Gaussian(R) 98 system (copyright 1998, Gaussian, Inc.),
 the Gaussian(R) 94 system (copyright 1995, Gaussian, Inc.),
 the Gaussian 92(TM) system (copyright 1992, Gaussian, Inc.),
 the Gaussian 90(TM) system (copyright 1990, Gaussian, Inc.),
 the Gaussian 88(TM) system (copyright 1988, Gaussian, Inc.),
 the Gaussian 86(TM) system (copyright 1986, Carnegie Mellon
 University), and the Gaussian 82(TM) system (copyright 1983,
 Carnegie Mellon University). Gaussian is a federally registered
 trademark of Gaussian, Inc.
  
 This software contains proprietary and confidential information,
 including trade secrets, belonging to Gaussian, Inc.
  
 This software is provided under written license and may be
 used, copied, transmitted, or stored only in accord with that
 written license.
  
 The following legend is applicable only to US Government
 contracts under FAR:
  
                    RESTRICTED RIGHTS LEGEND
  
 Use, reproduction and disclosure by the US Government is
 subject to restrictions as set forth in subparagraphs (a)
 and (c) of the Commercial Computer Software - Restricted
 Rights clause in FAR 52.227-19.
  
 Gaussian, Inc.
 340 Quinnipiac St., Bldg. 40, Wallingford CT 06492
  
  
 ---------------------------------------------------------------
 Warning -- This program may not be used in any manner that
 competes with the business of Gaussian, Inc. or will provide
 assistance to any competitor of Gaussian, Inc.  The licensee
 of this program is prohibited from giving any competitor of
 Gaussian, Inc. access to this program.  By using this program,
 the user acknowledges that Gaussian, Inc. is engaged in the
 business of creating and licensing software in the field of
 computational chemistry and represents and warrants to the
 licensee that it is not a competitor of Gaussian, Inc. and that
 it will not use this program in any manner prohibited above.
 ---------------------------------------------------------------
  

 Cite this work as:
 Gaussian 16, Revision C.01,
 M. J. Frisch, G. W. Trucks, H. B. Schlegel, G. E. Scuseria, 
 M. A. Robb, J. R. Cheeseman, G. Scalmani, V. Barone, 
 G. A. Petersson, H. Nakatsuji, X. Li, M. Caricato, A. V. Marenich, 
 J. Bloino, B. G. Janesko, R. Gomperts, B. Mennucci, H. P. Hratchian, 
 J. V. Ortiz, A. F. Izmaylov, J. L. Sonnenberg, D. Williams-Young, 
 F. Ding, F. Lipparini, F. Egidi, J. Goings, B. Peng, A. Petrone, 
 T. Henderson, D. Ranasinghe, V. G. Zakrzewski, J. Gao, N. Rega, 
 G. Zheng, W. Liang, M. Hada, M. Ehara, K. Toyota, R. Fukuda, 
 J. Hasegawa, M. Ishida, T. Nakajima, Y. Honda, O. Kitao, H. Nakai, 
 T. Vreven, K. Throssell, J. A. Montgomery, Jr., J. E. Peralta, 
 F. Ogliaro, M. J. Bearpark, J. J. Heyd, E. N. Brothers, K. N. Kudin, 
 V. N. Staroverov, T. A. Keith, R. Kobayashi, J. Normand, 
 K. Raghavachari, A. P. Rendell, J. C. Burant, S. S. Iyengar, 
 J. Tomasi, M. Cossi, J. M. Millam, M. Klene, C. Adamo, R. Cammi, 
 J. W. Ochterski, R. L. Martin, K. Morokuma, O. Farkas, 
 J. B. Foresman, and D. J. Fox, Gaussian, Inc., Wallingford CT, 2019.
 
 ******************************************
 Gaussian 16:  ES64L-G16RevC.01  3-Jul-2019
                 9-Jul-2025 
 ******************************************
 %chk=kr_beb.chk
 %mem=8GB
 %nproc=4
 Will use up to    4 processors via shared memory.
 ----------------------------------------------------------
 #p B3LYP/aug-cc-pVTZ IOp(3/33=1,6/80=1) SCF=Tight Pop=Full
 ----------------------------------------------------------
 1/38=1,172=1/1;
 2/12=2,17=6,18=5,40=1/2;
 3/5=16,6=1,7=10,11=2,25=1,30=1,33=1,74=-5/1,2,3;
 4//1;
 5/5=2,32=2,38=5/2;
 6/7=3,28=1,80=1/1;
 99/5=1,9=1/99;
 Leave Link    1 at Wed Jul  9 12:54:40 2025, MaxMem=  1073741824 cpu:               0.1 elap:               0.0
 (Enter /home/app/Gaussian/16.C.01/g16/l101.exe)
 ---------------------------------------------
 Kr atom BEB calculation with kinetic energies
 ---------------------------------------------
 Symbolic Z-matrix:
 Charge =  0 Multiplicity = 1
 Kr                    0.        0.        0. 
 
 ITRead=  0
 MicOpt= -1
 NAtoms=      1 NQM=        1 NQMF=       0 NMMI=      0 NMMIF=      0
                NMic=       0 NMicF=      0.
                    Isotopes and Nuclear Properties:
 (Nuclear quadrupole moments (NQMom) in fm**2, nuclear magnetic moments (NMagM)
  in nuclear magnetons)

  Atom         1
 IAtWgt=          84
 AtmWgt=  83.9115064
 NucSpn=           0
 AtZEff=  -0.0000000
 NQMom=    0.0000000
 NMagM=    0.0000000
 AtZNuc=  36.0000000
 Leave Link  101 at Wed Jul  9 12:54:40 2025, MaxMem=  1073741824 cpu:               0.3 elap:               0.1
 (Enter /home/app/Gaussian/16.C.01/g16/l202.exe)
                          Input orientation:                          
 ---------------------------------------------------------------------
 Center     Atomic      Atomic             Coordinates (Angstroms)
 Number     Number       Type             X           Y           Z
 ---------------------------------------------------------------------
      1         36           0        0.000000    0.000000    0.000000
 ---------------------------------------------------------------------
 Stoichiometry    Kr
 Framework group  OH[O(Kr)]
 Deg. of freedom     0
 Full point group                 OH      NOp  48
 Largest Abelian subgroup         D2H     NOp   8
 Largest concise Abelian subgroup C1      NOp   1
                         Standard orientation:                         
 ---------------------------------------------------------------------
 Center     Atomic      Atomic             Coordinates (Angstroms)
 Number     Number       Type             X           Y           Z
 ---------------------------------------------------------------------
      1         36           0        0.000000    0.000000    0.000000
 ---------------------------------------------------------------------
 Leave Link  202 at Wed Jul  9 12:54:40 2025, MaxMem=  1073741824 cpu:               0.1 elap:               0.0
 (Enter /home/app/Gaussian/16.C.01/g16/l301.exe)
 Standard basis: Aug-CC-pVTZ (5D, 7F)
                         Coordinates in L301:                         
 ---------------------------------------------------------------------
 Center     Atomic      Atomic             Coordinates (Angstroms)
 Number     Number       Type             X           Y           Z
 ---------------------------------------------------------------------
      1         36           0        0.000000    0.000000    0.000000
 ---------------------------------------------------------------------
 FixB: optimizing general contractions.
 Ernie: Thresh=  0.10000D-02 Tol=  0.10000D-05 Strict=F.
 IA=     1 ShT= 0 ShC= 0 NL=   7 NS=   3.
 IA=     1 L=0 SC=0 ISt=    1 NBk=    4 NP=   18 IndPr=    0.
 DoElim1:  L=0 select primitive    5 from    2 using    1 C= 3.53D-03
 DoElim1:  L=0 select primitive    5 from    3 using    1 C= 3.53D-03
 DoElim1:  L=0 select primitive    5 from    4 using    1 C= 3.53D-03
 DoElim1:  L=0 select primitive    8 from    3 using    2 C=-1.67D-03
 DoElim1:  L=0 select primitive    8 from    4 using    2 C=-1.67D-03
 DoElim1:  L=0 select primitive   11 from    4 using    3 C= 4.12D-03
 DoElim2:  L=0 select primitive   18 from    3 using    4 C= 7.14D-01
 DoElim2:  L=0 select primitive   18 from    2 using    4 C= 7.14D-01
 DoElim2:  L=0 select primitive   18 from    1 using    4 C= 7.14D-01
 DoElim2:  L=0 select primitive   16 from    2 using    3 C= 6.71D-01
 DoElim2:  L=0 select primitive   16 from    1 using    3 C= 6.71D-01
 DoElim2:  L=0 select primitive   14 from    1 using    2 C= 6.01D-01
 Delete L=0 primitive   11 from    4 C=  1.12D-19.
 Delete L=0 primitive    8 from    4 C=  1.06D-20.
 Delete L=0 primitive    7 from    4 C=  3.60D-07.
 Delete L=0 primitive    6 from    4 C=  2.76D-07.
 Delete L=0 primitive    5 from    4 C=  3.15D-21.
 Delete L=0 primitive    4 from    4 C=  2.39D-09.
 Delete L=0 primitive    3 from    4 C=  4.33D-09.
 Delete L=0 primitive    2 from    4 C=  4.83D-08.
 Delete L=0 primitive    1 from    4 C=  2.34D-08.
 Delete L=0 primitive   18 from    3 C=  3.16D-19.
 Delete L=0 primitive    8 from    3 C=  2.62D-20.
 Delete L=0 primitive    5 from    3 C=  7.95D-21.
 Delete L=0 primitive    4 from    3 C=  2.13D-07.
 Delete L=0 primitive    3 from    3 C=  4.06D-08.
 Delete L=0 primitive    2 from    3 C=  4.36D-08.
 Delete L=0 primitive    1 from    3 C=  2.40D-08.
 Delete L=0 primitive   18 from    2 C=  1.12D-20.
 Delete L=0 primitive   16 from    2 C=  7.34D-19.
 Delete L=0 primitive    5 from    2 C=  3.27D-20.
 Delete L=0 primitive    3 from    2 C=  3.06D-07.
 Delete L=0 primitive    2 from    2 C=  5.49D-08.
 Delete L=0 primitive    1 from    2 C=  2.81D-08.
 Delete L=0 primitive   18 from    1 C=  1.53D-21.
 Delete L=0 primitive   16 from    1 C=  3.06D-20.
 Delete L=0 primitive   14 from    1 C=  1.08D-19.
 IA=     1 L=0 SC=0 ISt=    0 NBk=    0 NP=    0 IndPr=   47.
 IA=     1 ShT= 1 ShC= 1 NL=   6 NS=   3.
 IA=     1 L=1 SC=1 ISt=    1 NBk=    3 NP=   11 IndPr=    0.
 DoElim1:  L=1 select primitive    2 from    2 using    1 C= 3.67D-03
 DoElim1:  L=1 select primitive    2 from    3 using    1 C= 3.67D-03
 DoElim1:  L=1 select primitive    4 from    3 using    2 C=-1.20D-03
 DoElim2:  L=1 select primitive   11 from    2 using    3 C= 5.75D-01
 DoElim2:  L=1 select primitive   11 from    1 using    3 C= 5.75D-01
 DoElim2:  L=1 select primitive    9 from    1 using    2 C= 5.46D-01
 Delete L=1 primitive    4 from    3 C=  1.08D-20.
 Delete L=1 primitive    2 from    3 C=  1.64D-20.
 Delete L=1 primitive    1 from    3 C=  2.94D-07.
 Delete L=1 primitive   11 from    2 C=  1.34D-20.
 Delete L=1 primitive    2 from    2 C=  5.03D-20.
 Delete L=1 primitive   11 from    1 C=  1.24D-20.
 Delete L=1 primitive    9 from    1 C=  2.46D-19.
 IA=     1 L=1 SC=1 ISt=    0 NBk=    0 NP=    0 IndPr=   26.
 IA=     1 ShT= 2 ShC= 2 NL=   4 NS=   3.
 IA=     1 L=2 SC=2 ISt=    0 NBk=    0 NP=    0 IndPr=    0.
 IA=     1 ShT= 3 ShC= 3 NL=   2 NS=   2.
 IA=     1 L=3 SC=3 ISt=    0 NBk=    0 NP=    0 IndPr=    0.
 Ernie:  32 primitive shells out of 123 were deleted.
 LdAtmC:  AtmChg=    36.000000
 AtZEff=    -24.1200000
 NEqShl: 
              1            2            3            4            5
     1            1            1            1            1            1
     2            2            2            2            2            2
     3            3            3            3            3            3
     4            4            4            4            4            4
     5            5            5            5            5            5
     6            6            6            6            6            6
     7            7            7            7            7            7
     8            8            8            8            8            8
     9            9            9            9            9            9
    10           10           10           10           10           10
    11           11           11           11           11           11
    12           12           12           12           12           12
    13           13           13           13           13           13
    14           14           14           14           14           14
    15           15           15           15           15           15
    16           16           16           16           16           16
    17           17           17           17           17           17
    18           18           18           18           18           18
    19           19           19           19           19           19
              6            7            8            9           10
     1            1            1            1            1            1
     2            2            2            2            2            2
     3            3            3            3            3            3
     4            4            4            4            4            4
     5            5            5            5            5            5
     6            6            6            6            6            6
     7            7            7            7            7            7
     8            8            8            8            8            8
     9            9            9            9            9            9
    10           10           10           10           10           10
    11           11           11           11           11           11
    12           12           12           12           12           12
    13           13           13           13           13           13
    14           14           14           14           14           14
    15           15           15           15           15           15
    16           16           16           16           16           16
    17           17           17           17           17           17
    18           18           18           18           18           18
    19           19           19           19           19           19
             11           12           13           14           15
     1            1            1            1            1            1
     2            2            2            2            2            2
     3            3            3            3            3            3
     4            4            4            4            4            4
     5            5            5            5            5            5
     6            6            6            6            6            6
     7            7            7            7            7            7
     8            8            8            8            8            8
     9            9            9            9            9            9
    10           10           10           10           10           10
    11           11           11           11           11           11
    12           12           12           12           12           12
    13           13           13           13           13           13
    14           14           14           14           14           14
    15           15           15           15           15           15
    16           16           16           16           16           16
    17           17           17           17           17           17
    18           18           18           18           18           18
    19           19           19           19           19           19
             16           17           18           19           20
     1            1            1            1            1            1
     2            2            2            2            2            2
     3            3            3            3            3            3
     4            4            4            4            4            4
     5            5            5            5            5            5
     6            6            6            6            6            6
     7            7            7            7            7            7
     8            8            8            8            8            8
     9            9            9            9            9            9
    10           10           10           10           10           10
    11           11           11           11           11           11
    12           12           12           12           12           12
    13           13           13           13           13           13
    14           14           14           14           14           14
    15           15           15           15           15           15
    16           16           16           16           16           16
    17           17           17           17           17           17
    18           18           18           18           18           18
    19           19           19           19           19           19
             21           22           23           24           25
     1            1            1            1            1            1
     2            2            2            2            2            2
     3            3            3            3            3            3
     4            4            4            4            4            4
     5            5            5            5            5            5
     6            6            6            6            6            6
     7            7            7            7            7            7
     8            8            8            8            8            8
     9            9            9            9            9            9
    10           10           10           10           10           10
    11           11           11           11           11           11
    12           12           12           12           12           12
    13           13           13           13           13           13
    14           14           14           14           14           14
    15           15           15           15           15           15
    16           16           16           16           16           16
    17           17           17           17           17           17
    18           18           18           18           18           18
    19           19           19           19           19           19
             26           27           28           29           30
     1            1            1            1            1            1
     2            2            2            2            2            2
     3            3            3            3            3            3
     4            4            4            4            4            4
     5            5            5            5            5            5
     6            6            6            6            6            6
     7            7            7            7            7            7
     8            8            8            8            8            8
     9            9            9            9            9            9
    10           10           10           10           10           10
    11           11           11           11           11           11
    12           12           12           12           12           12
    13           13           13           13           13           13
    14           14           14           14           14           14
    15           15           15           15           15           15
    16           16           16           16           16           16
    17           17           17           17           17           17
    18           18           18           18           18           18
    19           19           19           19           19           19
             31           32           33           34           35
     1            1            1            1            1            1
     2            2            2            2            2            2
     3            3            3            3            3            3
     4            4            4            4            4            4
     5            5            5            5            5            5
     6            6            6            6            6            6
     7            7            7            7            7            7
     8            8            8            8            8            8
     9            9            9            9            9            9
    10           10           10           10           10           10
    11           11           11           11           11           11
    12           12           12           12           12           12
    13           13           13           13           13           13
    14           14           14           14           14           14
    15           15           15           15           15           15
    16           16           16           16           16           16
    17           17           17           17           17           17
    18           18           18           18           18           18
    19           19           19           19           19           19
             36           37           38           39           40
     1            1            1            1            1            1
     2            2            2            2            2            2
     3            3            3            3            3            3
     4            4            4            4            4            4
     5            5            5            5            5            5
     6            6            6            6            6            6
     7            7            7            7            7            7
     8            8            8            8            8            8
     9            9            9            9            9            9
    10           10           10           10           10           10
    11           11           11           11           11           11
    12           12           12           12           12           12
    13           13           13           13           13           13
    14           14           14           14           14           14
    15           15           15           15           15           15
    16           16           16           16           16           16
    17           17           17           17           17           17
    18           18           18           18           18           18
    19           19           19           19           19           19
             41           42           43           44           45
     1            1            1            1            1            1
     2            2            2            2            2            2
     3            3            3            3            3            3
     4            4            4            4            4            4
     5            5            5            5            5            5
     6            6            6            6            6            6
     7            7            7            7            7            7
     8            8            8            8            8            8
     9            9            9            9            9            9
    10           10           10           10           10           10
    11           11           11           11           11           11
    12           12           12           12           12           12
    13           13           13           13           13           13
    14           14           14           14           14           14
    15           15           15           15           15           15
    16           16           16           16           16           16
    17           17           17           17           17           17
    18           18           18           18           18           18
    19           19           19           19           19           19
             46           47           48
     1            1            1            1
     2            2            2            2
     3            3            3            3
     4            4            4            4
     5            5            5            5
     6            6            6            6
     7            7            7            7
     8            8            8            8
     9            9            9            9
    10           10           10           10
    11           11           11           11
    12           12           12           12
    13           13           13           13
    14           14           14           14
    15           15           15           15
    16           16           16           16
    17           17           17           17
    18           18           18           18
    19           19           19           19
 NEqBas: 
              1            2            3            4            5
     1            1            1            1            1            1
     2            2            2            2            2            2
     3            3            3            3            3            3
     4            4            4            4            4            4
     5            5            5            5            5            5
     6            6            6            6            6            6
     7            7            7            7            7            7
     8            8            8           -8           -8           -8
     9            9           -9            9           -9           -9
    10           10          -10          -10           10          -10
    11           11           11          -11          -11          -11
    12           12          -12           12          -12          -12
    13           13          -13          -13           13          -13
    14           14           14          -14          -14          -14
    15           15          -15           15          -15          -15
    16           16          -16          -16           16          -16
    17           17           17          -17          -17          -17
    18           18          -18           18          -18          -18
    19           19          -19          -19           19          -19
    20           20           20          -20          -20          -20
    21           21          -21           21          -21          -21
    22           22          -22          -22           22          -22
    23           23           23          -23          -23          -23
    24           24          -24           24          -24          -24
    25           25          -25          -25           25          -25
    26           26           26           26           26           26
    27           27           27           27           27           27
    28           28           28           28           28           28
    29           29          -29          -29           29           29
    30           30          -30           30          -30           30
    31           31           31          -31          -31           31
    32           32           32           32           32           32
    33           33           33           33           33           33
    34           34           34           34           34           34
    35           35          -35          -35           35           35
    36           36          -36           36          -36           36
    37           37           37          -37          -37           37
    38           38           38           38           38           38
    39           39           39           39           39           39
    40           40           40           40           40           40
    41           41          -41          -41           41           41
    42           42          -42           42          -42           42
    43           43           43          -43          -43           43
    44           44           44           44           44           44
    45           45           45           45           45           45
    46           46           46           46           46           46
    47           47          -47          -47           47           47
    48           48          -48           48          -48           48
    49           49           49          -49          -49           49
    50           50           50          -50          -50          -50
    51           51          -51           51          -51          -51
    52           52          -52          -52           52          -52
    53           53           53          -53          -53          -53
    54           54          -54           54          -54          -54
    55           55          -55          -55           55          -55
    56           56           56          -56          -56          -56
    57           57          -57           57          -57          -57
    58           58          -58          -58           58          -58
    59           59           59           59           59          -59
    60           60           60          -60          -60          -60
    61           61          -61           61          -61          -61
    62           62          -62          -62           62          -62
    63           63           63          -63          -63          -63
    64           64          -64           64          -64          -64
    65           65          -65          -65           65          -65
    66           66           66          -66          -66          -66
    67           67          -67           67          -67          -67
    68           68          -68          -68           68          -68
    69           69           69           69           69          -69
              6            7            8
     1            1            1            1
     2            2            2            2
     3            3            3            3
     4            4            4            4
     5            5            5            5
     6            6            6            6
     7            7            7            7
     8           -8            8            8
     9            9           -9            9
    10           10           10          -10
    11          -11           11           11
    12           12          -12           12
    13           13           13          -13
    14          -14           14           14
    15           15          -15           15
    16           16           16          -16
    17          -17           17           17
    18           18          -18           18
    19           19           19          -19
    20          -20           20           20
    21           21          -21           21
    22           22           22          -22
    23          -23           23           23
    24           24          -24           24
    25           25           25          -25
    26           26           26           26
    27           27           27           27
    28           28           28           28
    29          -29          -29           29
    30          -30           30          -30
    31           31          -31          -31
    32           32           32           32
    33           33           33           33
    34           34           34           34
    35          -35          -35           35
    36          -36           36          -36
    37           37          -37          -37
    38           38           38           38
    39           39           39           39
    40           40           40           40
    41          -41          -41           41
    42          -42           42          -42
    43           43          -43          -43
    44           44           44           44
    45           45           45           45
    46           46           46           46
    47          -47          -47           47
    48          -48           48          -48
    49           49          -49          -49
    50          -50           50           50
    51           51          -51           51
    52           52           52          -52
    53          -53           53           53
    54           54          -54           54
    55           55           55          -55
    56          -56           56           56
    57           57          -57           57
    58           58           58          -58
    59          -59          -59          -59
    60          -60           60           60
    61           61          -61           61
    62           62           62          -62
    63          -63           63           63
    64           64          -64           64
    65           65           65          -65
    66          -66           66           66
    67           67          -67           67
    68           68           68          -68
    69          -69          -69          -69
 There are    19 symmetry adapted cartesian basis functions of AG  symmetry.
   1         1   1   1   1   1   1   1   1
   2         2   2   2   2   2   2   2   2
   3         3   3   3   3   3   3   3   3
   4         4   4   4   4   4   4   4   4
   5         5   5   5   5   5   5   5   5
   6         6   6   6   6   6   6   6   6
   7         7   7   7   7   7   7   7   7
   8        26  26  26  26  26  26  26  26
   9        27  27  27  27  27  27  27  27
  10        28  28  28  28  28  28  28  28
  11        32  32  32  32  32  32  32  32
  12        33  33  33  33  33  33  33  33
  13        34  34  34  34  34  34  34  34
  14        38  38  38  38  38  38  38  38
  15        39  39  39  39  39  39  39  39
  16        40  40  40  40  40  40  40  40
  17        44  44  44  44  44  44  44  44
  18        45  45  45  45  45  45  45  45
  19        46  46  46  46  46  46  46  46
 There are     4 symmetry adapted cartesian basis functions of B1G symmetry.
  20        29  29  29  29  29  29  29  29
  21        35  35  35  35  35  35  35  35
  22        41  41  41  41  41  41  41  41
  23        47  47  47  47  47  47  47  47
 There are     4 symmetry adapted cartesian basis functions of B2G symmetry.
  24        30  30  30  30  30  30  30  30
  25        36  36  36  36  36  36  36  36
  26        42  42  42  42  42  42  42  42
  27        48  48  48  48  48  48  48  48
 There are     4 symmetry adapted cartesian basis functions of B3G symmetry.
  28        31  31  31  31  31  31  31  31
  29        37  37  37  37  37  37  37  37
  30        43  43  43  43  43  43  43  43
  31        49  49  49  49  49  49  49  49
 There are     2 symmetry adapted cartesian basis functions of AU  symmetry.
  32        59  59  59  59  59  59  59  59
  33        69  69  69  69  69  69  69  69
 There are    12 symmetry adapted cartesian basis functions of B1U symmetry.
  34        10  10  10  10  10  10  10  10
  35        13  13  13  13  13  13  13  13
  36        16  16  16  16  16  16  16  16
  37        19  19  19  19  19  19  19  19
  38        22  22  22  22  22  22  22  22
  39        25  25  25  25  25  25  25  25
  40        52  52  52  52  52  52  52  52
  41        55  55  55  55  55  55  55  55
  42        58  58  58  58  58  58  58  58
  43        62  62  62  62  62  62  62  62
  44        65  65  65  65  65  65  65  65
  45        68  68  68  68  68  68  68  68
 There are    12 symmetry adapted cartesian basis functions of B2U symmetry.
  46         9   9   9   9   9   9   9   9
  47        12  12  12  12  12  12  12  12
  48        15  15  15  15  15  15  15  15
  49        18  18  18  18  18  18  18  18
  50        21  21  21  21  21  21  21  21
  51        24  24  24  24  24  24  24  24
  52        51  51  51  51  51  51  51  51
  53        54  54  54  54  54  54  54  54
  54        57  57  57  57  57  57  57  57
  55        61  61  61  61  61  61  61  61
  56        64  64  64  64  64  64  64  64
  57        67  67  67  67  67  67  67  67
 There are    12 symmetry adapted cartesian basis functions of B3U symmetry.
  58         8   8   8   8   8   8   8   8
  59        11  11  11  11  11  11  11  11
  60        14  14  14  14  14  14  14  14
  61        17  17  17  17  17  17  17  17
  62        20  20  20  20  20  20  20  20
  63        23  23  23  23  23  23  23  23
  64        50  50  50  50  50  50  50  50
  65        53  53  53  53  53  53  53  53
  66        56  56  56  56  56  56  56  56
  67        60  60  60  60  60  60  60  60
  68        63  63  63  63  63  63  63  63
  69        66  66  66  66  66  66  66  66
 Order= 1 4 3 2 5 8 7 6
 Reordered character table:
              1            2            3            4            5
     1            1            1            1            1            1
     2            4            1           -1           -1            1
     3            3            1           -1            1           -1
     4            2            1            1           -1           -1
     5            5            1            1            1            1
     6            8            1           -1           -1            1
     7            7            1           -1            1           -1
     8            6            1            1           -1           -1
              6            7            8            9
     1            1            1            1            1
     2            1           -1           -1            1
     3            1           -1            1           -1
     4            1            1           -1           -1
     5           -1           -1           -1           -1
     6           -1            1            1           -1
     7           -1            1           -1            1
     8           -1           -1            1            1
 NEqShl: 
              1            2            3            4            5
     1            1            1            1            1            1
     2            2            2            2            2            2
     3            3            3            3            3            3
     4            4            4            4            4            4
     5            5            5            5            5            5
     6            6            6            6            6            6
     7            7            7            7            7            7
     8            8            8            8            8            8
     9            9            9            9            9            9
    10           10           10           10           10           10
    11           11           11           11           11           11
    12           12           12           12           12           12
    13           13           13           13           13           13
    14           14           14           14           14           14
    15           15           15           15           15           15
    16           16           16           16           16           16
    17           17           17           17           17           17
    18           18           18           18           18           18
    19           19           19           19           19           19
              6            7            8            9           10
     1            1            1            1            1            1
     2            2            2            2            2            2
     3            3            3            3            3            3
     4            4            4            4            4            4
     5            5            5            5            5            5
     6            6            6            6            6            6
     7            7            7            7            7            7
     8            8            8            8            8            8
     9            9            9            9            9            9
    10           10           10           10           10           10
    11           11           11           11           11           11
    12           12           12           12           12           12
    13           13           13           13           13           13
    14           14           14           14           14           14
    15           15           15           15           15           15
    16           16           16           16           16           16
    17           17           17           17           17           17
    18           18           18           18           18           18
    19           19           19           19           19           19
             11           12           13           14           15
     1            1            1            1            1            1
     2            2            2            2            2            2
     3            3            3            3            3            3
     4            4            4            4            4            4
     5            5            5            5            5            5
     6            6            6            6            6            6
     7            7            7            7            7            7
     8            8            8            8            8            8
     9            9            9            9            9            9
    10           10           10           10           10           10
    11           11           11           11           11           11
    12           12           12           12           12           12
    13           13           13           13           13           13
    14           14           14           14           14           14
    15           15           15           15           15           15
    16           16           16           16           16           16
    17           17           17           17           17           17
    18           18           18           18           18           18
    19           19           19           19           19           19
             16           17           18           19           20
     1            1            1            1            1            1
     2            2            2            2            2            2
     3            3            3            3            3            3
     4            4            4            4            4            4
     5            5            5            5            5            5
     6            6            6            6            6            6
     7            7            7            7            7            7
     8            8            8            8            8            8
     9            9            9            9            9            9
    10           10           10           10           10           10
    11           11           11           11           11           11
    12           12           12           12           12           12
    13           13           13           13           13           13
    14           14           14           14           14           14
    15           15           15           15           15           15
    16           16           16           16           16           16
    17           17           17           17           17           17
    18           18           18           18           18           18
    19           19           19           19           19           19
             21           22           23           24           25
     1            1            1            1            1            1
     2            2            2            2            2            2
     3            3            3            3            3            3
     4            4            4            4            4            4
     5            5            5            5            5            5
     6            6            6            6            6            6
     7            7            7            7            7            7
     8            8            8            8            8            8
     9            9            9            9            9            9
    10           10           10           10           10           10
    11           11           11           11           11           11
    12           12           12           12           12           12
    13           13           13           13           13           13
    14           14           14           14           14           14
    15           15           15           15           15           15
    16           16           16           16           16           16
    17           17           17           17           17           17
    18           18           18           18           18           18
    19           19           19           19           19           19
             26           27           28           29           30
     1            1            1            1            1            1
     2            2            2            2            2            2
     3            3            3            3            3            3
     4            4            4            4            4            4
     5            5            5            5            5            5
     6            6            6            6            6            6
     7            7            7            7            7            7
     8            8            8            8            8            8
     9            9            9            9            9            9
    10           10           10           10           10           10
    11           11           11           11           11           11
    12           12           12           12           12           12
    13           13           13           13           13           13
    14           14           14           14           14           14
    15           15           15           15           15           15
    16           16           16           16           16           16
    17           17           17           17           17           17
    18           18           18           18           18           18
    19           19           19           19           19           19
             31           32           33           34           35
     1            1            1            1            1            1
     2            2            2            2            2            2
     3            3            3            3            3            3
     4            4            4            4            4            4
     5            5            5            5            5            5
     6            6            6            6            6            6
     7            7            7            7            7            7
     8            8            8            8            8            8
     9            9            9            9            9            9
    10           10           10           10           10           10
    11           11           11           11           11           11
    12           12           12           12           12           12
    13           13           13           13           13           13
    14           14           14           14           14           14
    15           15           15           15           15           15
    16           16           16           16           16           16
    17           17           17           17           17           17
    18           18           18           18           18           18
    19           19           19           19           19           19
             36           37           38           39           40
     1            1            1            1            1            1
     2            2            2            2            2            2
     3            3            3            3            3            3
     4            4            4            4            4            4
     5            5            5            5            5            5
     6            6            6            6            6            6
     7            7            7            7            7            7
     8            8            8            8            8            8
     9            9            9            9            9            9
    10           10           10           10           10           10
    11           11           11           11           11           11
    12           12           12           12           12           12
    13           13           13           13           13           13
    14           14           14           14           14           14
    15           15           15           15           15           15
    16           16           16           16           16           16
    17           17           17           17           17           17
    18           18           18           18           18           18
    19           19           19           19           19           19
             41           42           43           44           45
     1            1            1            1            1            1
     2            2            2            2            2            2
     3            3            3            3            3            3
     4            4            4            4            4            4
     5            5            5            5            5            5
     6            6            6            6            6            6
     7            7            7            7            7            7
     8            8            8            8            8            8
     9            9            9            9            9            9
    10           10           10           10           10           10
    11           11           11           11           11           11
    12           12           12           12           12           12
    13           13           13           13           13           13
    14           14           14           14           14           14
    15           15           15           15           15           15
    16           16           16           16           16           16
    17           17           17           17           17           17
    18           18           18           18           18           18
    19           19           19           19           19           19
             46           47           48
     1            1            1            1
     2            2            2            2
     3            3            3            3
     4            4            4            4
     5            5            5            5
     6            6            6            6
     7            7            7            7
     8            8            8            8
     9            9            9            9
    10           10           10           10
    11           11           11           11
    12           12           12           12
    13           13           13           13
    14           14           14           14
    15           15           15           15
    16           16           16           16
    17           17           17           17
    18           18           18           18
    19           19           19           19
 NEqBas: 
              1            2            3            4            5
     1            1            1            1            1            1
     2            2            2            2            2            2
     3            3            3            3            3            3
     4            4            4            4            4            4
     5            5            5            5            5            5
     6            6            6            6            6            6
     7            7            7            7            7            7
     8            8            8           -8           -8           -8
     9            9           -9            9           -9           -9
    10           10          -10          -10           10          -10
    11           11           11          -11          -11          -11
    12           12          -12           12          -12          -12
    13           13          -13          -13           13          -13
    14           14           14          -14          -14          -14
    15           15          -15           15          -15          -15
    16           16          -16          -16           16          -16
    17           17           17          -17          -17          -17
    18           18          -18           18          -18          -18
    19           19          -19          -19           19          -19
    20           20           20          -20          -20          -20
    21           21          -21           21          -21          -21
    22           22          -22          -22           22          -22
    23           23           23          -23          -23          -23
    24           24          -24           24          -24          -24
    25           25          -25          -25           25          -25
    26           26           26           26           26           26
    27           27          -27           27          -27           27
    28           28           28          -28          -28           28
    29           29           29           29           29           29
    30           30          -30          -30           30           30
    31           31           31           31           31           31
    32           32          -32           32          -32           32
    33           33           33          -33          -33           33
    34           34           34           34           34           34
    35           35          -35          -35           35           35
    36           36           36           36           36           36
    37           37          -37           37          -37           37
    38           38           38          -38          -38           38
    39           39           39           39           39           39
    40           40          -40          -40           40           40
    41           41           41           41           41           41
    42           42          -42           42          -42           42
    43           43           43          -43          -43           43
    44           44           44           44           44           44
    45           45          -45          -45           45           45
    46           46          -46          -46           46          -46
    47           47           47          -47          -47          -47
    48           48          -48           48          -48          -48
    49           49          -49          -49           49          -49
    50           50           50           50           50          -50
    51           51           51          -51          -51          -51
    52           52          -52           52          -52          -52
    53           53          -53          -53           53          -53
    54           54           54          -54          -54          -54
    55           55          -55           55          -55          -55
    56           56          -56          -56           56          -56
    57           57           57           57           57          -57
    58           58           58          -58          -58          -58
    59           59          -59           59          -59          -59
              6            7            8
     1            1            1            1
     2            2            2            2
     3            3            3            3
     4            4            4            4
     5            5            5            5
     6            6            6            6
     7            7            7            7
     8           -8            8            8
     9            9           -9            9
    10           10           10          -10
    11          -11           11           11
    12           12          -12           12
    13           13           13          -13
    14          -14           14           14
    15           15          -15           15
    16           16           16          -16
    17          -17           17           17
    18           18          -18           18
    19           19           19          -19
    20          -20           20           20
    21           21          -21           21
    22           22           22          -22
    23          -23           23           23
    24           24          -24           24
    25           25           25          -25
    26           26           26           26
    27          -27           27          -27
    28           28          -28          -28
    29           29           29           29
    30          -30          -30           30
    31           31           31           31
    32          -32           32          -32
    33           33          -33          -33
    34           34           34           34
    35          -35          -35           35
    36           36           36           36
    37          -37           37          -37
    38           38          -38          -38
    39           39           39           39
    40          -40          -40           40
    41           41           41           41
    42          -42           42          -42
    43           43          -43          -43
    44           44           44           44
    45          -45          -45           45
    46           46           46          -46
    47          -47           47           47
    48           48          -48           48
    49           49           49          -49
    50          -50          -50          -50
    51          -51           51           51
    52           52          -52           52
    53           53           53          -53
    54          -54           54           54
    55           55          -55           55
    56           56           56          -56
    57          -57          -57          -57
    58          -58           58           58
    59           59          -59           59
 There are    15 symmetry adapted basis functions of AG  symmetry.
   1         1   1   1   1   1   1   1   1
   2         2   2   2   2   2   2   2   2
   3         3   3   3   3   3   3   3   3
   4         4   4   4   4   4   4   4   4
   5         5   5   5   5   5   5   5   5
   6         6   6   6   6   6   6   6   6
   7         7   7   7   7   7   7   7   7
   8        26  26  26  26  26  26  26  26
   9        29  29  29  29  29  29  29  29
  10        31  31  31  31  31  31  31  31
  11        34  34  34  34  34  34  34  34
  12        36  36  36  36  36  36  36  36
  13        39  39  39  39  39  39  39  39
  14        41  41  41  41  41  41  41  41
  15        44  44  44  44  44  44  44  44
 There are     4 symmetry adapted basis functions of B1G symmetry.
  16        30  30  30  30  30  30  30  30
  17        35  35  35  35  35  35  35  35
  18        40  40  40  40  40  40  40  40
  19        45  45  45  45  45  45  45  45
 There are     4 symmetry adapted basis functions of B2G symmetry.
  20        27  27  27  27  27  27  27  27
  21        32  32  32  32  32  32  32  32
  22        37  37  37  37  37  37  37  37
  23        42  42  42  42  42  42  42  42
 There are     4 symmetry adapted basis functions of B3G symmetry.
  24        28  28  28  28  28  28  28  28
  25        33  33  33  33  33  33  33  33
  26        38  38  38  38  38  38  38  38
  27        43  43  43  43  43  43  43  43
 There are     2 symmetry adapted basis functions of AU  symmetry.
  28        50  50  50  50  50  50  50  50
  29        57  57  57  57  57  57  57  57
 There are    10 symmetry adapted basis functions of B1U symmetry.
  30        10  10  10  10  10  10  10  10
  31        13  13  13  13  13  13  13  13
  32        16  16  16  16  16  16  16  16
  33        19  19  19  19  19  19  19  19
  34        22  22  22  22  22  22  22  22
  35        25  25  25  25  25  25  25  25
  36        46  46  46  46  46  46  46  46
  37        49  49  49  49  49  49  49  49
  38        53  53  53  53  53  53  53  53
  39        56  56  56  56  56  56  56  56
 There are    10 symmetry adapted basis functions of B2U symmetry.
  40         9   9   9   9   9   9   9   9
  41        12  12  12  12  12  12  12  12
  42        15  15  15  15  15  15  15  15
  43        18  18  18  18  18  18  18  18
  44        21  21  21  21  21  21  21  21
  45        24  24  24  24  24  24  24  24
  46        48  48  48  48  48  48  48  48
  47        52  52  52  52  52  52  52  52
  48        55  55  55  55  55  55  55  55
  49        59  59  59  59  59  59  59  59
 There are    10 symmetry adapted basis functions of B3U symmetry.
  50         8   8   8   8   8   8   8   8
  51        11  11  11  11  11  11  11  11
  52        14  14  14  14  14  14  14  14
  53        17  17  17  17  17  17  17  17
  54        20  20  20  20  20  20  20  20
  55        23  23  23  23  23  23  23  23
  56        47  47  47  47  47  47  47  47
  57        51  51  51  51  51  51  51  51
  58        54  54  54  54  54  54  54  54
  59        58  58  58  58  58  58  58  58
 Order= 1 4 3 2 5 8 7 6
 Reordered character table:
              1            2            3            4            5
     1            1            1            1            1            1
     2            4            1           -1           -1            1
     3            3            1           -1            1           -1
     4            2            1            1           -1           -1
     5            5            1            1            1            1
     6            8            1           -1           -1            1
     7            7            1           -1            1           -1
     8            6            1            1           -1           -1
              6            7            8            9
     1            1            1            1            1
     2            1           -1           -1            1
     3            1           -1            1           -1
     4            1            1           -1           -1
     5           -1           -1           -1           -1
     6           -1            1            1           -1
     7           -1            1           -1            1
     8           -1           -1            1            1
    59 basis functions,   217 primitive gaussians,    69 cartesian basis functions
    18 alpha electrons       18 beta electrons
       nuclear repulsion energy         0.0000000000 Hartrees.
 IS=     1 IAt=     1 ISR=     1 T=0 IP=      1 IndIP=      1 IndIPD=      0 C=  7.987047D-01  0.000000D+00                             NZ=T
 IS=     1 IAt=     1 ISR=     1 T=0 IP=      2 IndIP=      2 IndIPD=      1 C=  1.503734D+00  0.000000D+00                             NZ=T
 IS=     1 IAt=     1 ISR=     1 T=0 IP=      3 IndIP=      3 IndIPD=      2 C=  2.607312D+00  0.000000D+00                             NZ=T
 IS=     1 IAt=     1 ISR=     1 T=0 IP=      4 IndIP=      4 IndIPD=      3 C=  4.274274D+00  0.000000D+00                             NZ=T
 IS=     1 IAt=     1 ISR=     1 T=0 IP=      5 IndIP=      5 IndIPD=      4 C=  6.697868D+00  0.000000D+00                             NZ=T
 IS=     1 IAt=     1 ISR=     1 T=0 IP=      6 IndIP=      6 IndIPD=      5 C=  1.007600D+01  0.000000D+00                             NZ=T
 IS=     1 IAt=     1 ISR=     1 T=0 IP=      7 IndIP=      7 IndIPD=      6 C=  1.442719D+01  0.000000D+00                             NZ=T
 IS=     1 IAt=     1 ISR=     1 T=0 IP=      8 IndIP=      8 IndIPD=      7 C=  1.922269D+01  0.000000D+00                             NZ=T
 IS=     1 IAt=     1 ISR=     1 T=0 IP=      9 IndIP=      9 IndIPD=      8 C=  2.255836D+01  0.000000D+00                             NZ=T
 IS=     1 IAt=     1 ISR=     1 T=0 IP=     10 IndIP=     10 IndIPD=      9 C=  2.104724D+01  0.000000D+00                             NZ=T
 IS=     1 IAt=     1 ISR=     1 T=0 IP=     11 IndIP=     11 IndIPD=     10 C=  1.270382D+01  0.000000D+00                             NZ=T
 IS=     1 IAt=     1 ISR=     1 T=0 IP=     12 IndIP=     12 IndIPD=     11 C=  3.540665D+00  0.000000D+00                             NZ=T
 IS=     1 IAt=     1 ISR=     1 T=0 IP=     13 IndIP=     13 IndIPD=     12 C=  2.232382D-01  0.000000D+00                             NZ=T
 IS=     1 IAt=     1 ISR=     1 T=0 IP=     14 IndIP=     14 IndIPD=     13 C=  5.083966D-03  0.000000D+00                             NZ=T
 IS=     1 IAt=     1 ISR=     1 T=0 IP=     15 IndIP=     15 IndIPD=     14 C=  4.960227D-04  0.000000D+00                             NZ=T
 IS=     2 IAt=     1 ISR=     2 T=0 IP=      1 IndIP=     16 IndIPD=      0 C=  6.591205D-03  0.000000D+00                             NZ=T
 IS=     2 IAt=     1 ISR=     2 T=0 IP=      2 IndIP=     17 IndIPD=      1 C= -1.349588D-02  0.000000D+00                             NZ=T
 IS=     2 IAt=     1 ISR=     2 T=0 IP=      3 IndIP=     18 IndIPD=      2 C= -1.106030D-01  0.000000D+00                             NZ=T
 IS=     2 IAt=     1 ISR=     2 T=0 IP=      4 IndIP=     19 IndIPD=      3 C= -3.626147D-01  0.000000D+00                             NZ=T
 IS=     2 IAt=     1 ISR=     2 T=0 IP=      5 IndIP=     20 IndIPD=      4 C= -1.111075D+00  0.000000D+00                             NZ=T
 IS=     2 IAt=     1 ISR=     2 T=0 IP=      6 IndIP=     21 IndIPD=      5 C= -2.377107D+00  0.000000D+00                             NZ=T
 IS=     2 IAt=     1 ISR=     2 T=0 IP=      7 IndIP=     22 IndIPD=      6 C= -3.539413D+00  0.000000D+00                             NZ=T
 IS=     2 IAt=     1 ISR=     2 T=0 IP=      8 IndIP=     23 IndIPD=      7 C= -1.237241D+00  0.000000D+00                             NZ=T
 IS=     2 IAt=     1 ISR=     2 T=0 IP=      9 IndIP=     24 IndIPD=      8 C=  3.902333D+00  0.000000D+00                             NZ=T
 IS=     2 IAt=     1 ISR=     2 T=0 IP=     10 IndIP=     25 IndIPD=      9 C=  4.069442D+00  0.000000D+00                             NZ=T
 IS=     2 IAt=     1 ISR=     2 T=0 IP=     11 IndIP=     26 IndIPD=     10 C=  9.742696D-01  0.000000D+00                             NZ=T
 IS=     2 IAt=     1 ISR=     2 T=0 IP=     12 IndIP=     27 IndIPD=     11 C= -1.790789D-02  0.000000D+00                             NZ=T
 IS=     3 IAt=     1 ISR=     3 T=0 IP=      1 IndIP=     28 IndIPD=      0 C= -1.910853D-03  0.000000D+00                             NZ=T
 IS=     3 IAt=     1 ISR=     3 T=0 IP=      2 IndIP=     29 IndIPD=      1 C=  2.060773D-03  0.000000D+00                             NZ=T
 IS=     3 IAt=     1 ISR=     3 T=0 IP=      3 IndIP=     30 IndIPD=      2 C=  2.256975D-02  0.000000D+00                             NZ=T
 IS=     3 IAt=     1 ISR=     3 T=0 IP=      4 IndIP=     31 IndIPD=      3 C=  4.757596D-02  0.000000D+00                             NZ=T
 IS=     3 IAt=     1 ISR=     3 T=0 IP=      5 IndIP=     32 IndIPD=      4 C=  1.490943D-01  0.000000D+00                             NZ=T
 IS=     3 IAt=     1 ISR=     3 T=0 IP=      6 IndIP=     33 IndIPD=      5 C=  9.963282D-02  0.000000D+00                             NZ=T
 IS=     3 IAt=     1 ISR=     3 T=0 IP=      7 IndIP=     34 IndIPD=      6 C= -5.183124D-01  0.000000D+00                             NZ=T
 IS=     3 IAt=     1 ISR=     3 T=0 IP=      8 IndIP=     35 IndIPD=      7 C= -1.668654D+00  0.000000D+00                             NZ=T
 IS=     3 IAt=     1 ISR=     3 T=0 IP=      9 IndIP=     36 IndIPD=      8 C= -3.091024D-01  0.000000D+00                             NZ=T
 IS=     3 IAt=     1 ISR=     3 T=0 IP=     10 IndIP=     37 IndIPD=      9 C=  1.423863D+00  0.000000D+00                             NZ=T
 IS=     3 IAt=     1 ISR=     3 T=0 IP=     11 IndIP=     38 IndIPD=     10 C=  7.103298D-01  0.000000D+00                             NZ=T
 IS=     4 IAt=     1 ISR=     4 T=0 IP=      1 IndIP=     39 IndIPD=      0 C=  2.891265D-03  0.000000D+00                             NZ=T
 IS=     4 IAt=     1 ISR=     4 T=0 IP=      2 IndIP=     40 IndIPD=      1 C=  1.597683D-03  0.000000D+00                             NZ=T
 IS=     4 IAt=     1 ISR=     4 T=0 IP=      3 IndIP=     41 IndIPD=      2 C= -1.306568D-02  0.000000D+00                             NZ=T
 IS=     4 IAt=     1 ISR=     4 T=0 IP=      4 IndIP=     42 IndIPD=      3 C=  6.524129D-02  0.000000D+00                             NZ=T
 IS=     4 IAt=     1 ISR=     4 T=0 IP=      5 IndIP=     43 IndIPD=      4 C=  2.545713D-01  0.000000D+00                             NZ=T
 IS=     4 IAt=     1 ISR=     4 T=0 IP=      6 IndIP=     44 IndIPD=      5 C=  7.079685D-02  0.000000D+00                             NZ=T
 IS=     4 IAt=     1 ISR=     4 T=0 IP=      7 IndIP=     45 IndIPD=      6 C= -4.276778D-01  0.000000D+00                             NZ=T
 IS=     4 IAt=     1 ISR=     4 T=0 IP=      8 IndIP=     46 IndIPD=      7 C= -6.719843D-01  0.000000D+00                             NZ=T
 IS=     4 IAt=     1 ISR=     4 T=0 IP=      9 IndIP=     47 IndIPD=      8 C=  3.869904D-01  0.000000D+00                             NZ=T
 IS=     5 IAt=     1 ISR=     5 T=0 IP=      1 IndIP=     48 IndIPD=      0 C=  5.495420D-01  0.000000D+00                             NZ=T
 IS=     6 IAt=     1 ISR=     6 T=0 IP=      1 IndIP=     49 IndIPD=      0 C=  1.673146D-01  0.000000D+00                             NZ=T
 IS=     7 IAt=     1 ISR=     7 T=0 IP=      1 IndIP=     50 IndIPD=      0 C=  7.759230D-02  0.000000D+00                             NZ=T
 IS=     8 IAt=     1 ISR=     8 T=1 IP=      1 IndIP=     51 IndIPD=      0 C=  0.000000D+00  5.577797D+01                             NZ=T
 IS=     8 IAt=     1 ISR=     8 T=1 IP=      2 IndIP=     52 IndIPD=      1 C=  0.000000D+00  8.008950D+01                             NZ=T
 IS=     8 IAt=     1 ISR=     8 T=1 IP=      3 IndIP=     53 IndIPD=      2 C=  0.000000D+00  1.062603D+02                             NZ=T
 IS=     8 IAt=     1 ISR=     8 T=1 IP=      4 IndIP=     54 IndIPD=      3 C=  0.000000D+00  1.232036D+02                             NZ=T
 IS=     8 IAt=     1 ISR=     8 T=1 IP=      5 IndIP=     55 IndIPD=      4 C=  0.000000D+00  1.150550D+02                             NZ=T
 IS=     8 IAt=     1 ISR=     8 T=1 IP=      6 IndIP=     56 IndIPD=      5 C=  0.000000D+00  7.538028D+01                             NZ=T
 IS=     8 IAt=     1 ISR=     8 T=1 IP=      7 IndIP=     57 IndIPD=      6 C=  0.000000D+00  2.711578D+01                             NZ=T
 IS=     8 IAt=     1 ISR=     8 T=1 IP=      8 IndIP=     58 IndIPD=      7 C=  0.000000D+00  3.248212D+00                             NZ=T
 IS=     8 IAt=     1 ISR=     8 T=1 IP=      9 IndIP=     59 IndIPD=      8 C=  0.000000D+00 -7.445327D-03                             NZ=T
 IS=     9 IAt=     1 ISR=     9 T=1 IP=      1 IndIP=     60 IndIPD=      0 C=  0.000000D+00  1.258464D-01                             NZ=T
 IS=     9 IAt=     1 ISR=     9 T=1 IP=      2 IndIP=     61 IndIPD=      1 C=  0.000000D+00 -3.857492D-01                             NZ=T
 IS=     9 IAt=     1 ISR=     9 T=1 IP=      3 IndIP=     62 IndIPD=      2 C=  0.000000D+00 -1.796017D+00                             NZ=T
 IS=     9 IAt=     1 ISR=     9 T=1 IP=      4 IndIP=     63 IndIPD=      3 C=  0.000000D+00 -3.795689D+00                             NZ=T
 IS=     9 IAt=     1 ISR=     9 T=1 IP=      5 IndIP=     64 IndIPD=      4 C=  0.000000D+00 -4.786895D+00                             NZ=T
 IS=     9 IAt=     1 ISR=     9 T=1 IP=      6 IndIP=     65 IndIPD=      5 C=  0.000000D+00 -9.120627D-01                             NZ=T
 IS=     9 IAt=     1 ISR=     9 T=1 IP=      7 IndIP=     66 IndIPD=      6 C=  0.000000D+00  6.038570D+00                             NZ=T
 IS=     9 IAt=     1 ISR=     9 T=1 IP=      8 IndIP=     67 IndIPD=      7 C=  0.000000D+00  5.442688D+00                             NZ=T
 IS=     9 IAt=     1 ISR=     9 T=1 IP=      9 IndIP=     68 IndIPD=      8 C=  0.000000D+00  1.430543D+00                             NZ=T
 IS=    10 IAt=     1 ISR=    10 T=1 IP=      1 IndIP=     69 IndIPD=      0 C=  0.000000D+00 -1.436076D-01                             NZ=T
 IS=    10 IAt=     1 ISR=    10 T=1 IP=      2 IndIP=     70 IndIPD=      1 C=  0.000000D+00 -2.081558D-01                             NZ=T
 IS=    10 IAt=     1 ISR=    10 T=1 IP=      3 IndIP=     71 IndIPD=      2 C=  0.000000D+00  9.016808D-02                             NZ=T
 IS=    10 IAt=     1 ISR=    10 T=1 IP=      4 IndIP=     72 IndIPD=      3 C=  0.000000D+00 -1.879728D-01                             NZ=T
 IS=    10 IAt=     1 ISR=    10 T=1 IP=      5 IndIP=     73 IndIPD=      4 C=  0.000000D+00 -1.763139D-01                             NZ=T
 IS=    10 IAt=     1 ISR=    10 T=1 IP=      6 IndIP=     74 IndIPD=      5 C=  0.000000D+00 -5.571016D-01                             NZ=T
 IS=    10 IAt=     1 ISR=    10 T=1 IP=      7 IndIP=     75 IndIPD=      6 C=  0.000000D+00 -1.576096D-01                             NZ=T
 IS=    10 IAt=     1 ISR=    10 T=1 IP=      8 IndIP=     76 IndIPD=      7 C=  0.000000D+00  3.526560D-01                             NZ=T
 IS=    11 IAt=     1 ISR=    11 T=1 IP=      1 IndIP=     77 IndIPD=      0 C=  0.000000D+00  1.089269D+00                             NZ=T
 IS=    12 IAt=     1 ISR=    12 T=1 IP=      1 IndIP=     78 IndIPD=      0 C=  0.000000D+00  9.818315D-02                             NZ=T
 IS=    13 IAt=     1 ISR=    13 T=1 IP=      1 IndIP=     79 IndIPD=      0 C=  0.000000D+00  2.552482D-02                             NZ=T
 IS=    14 IAt=     1 ISR=    14 T=2 IP=      1 IndIP=     80 IndIPD=      1 C=  0.000000D+00  0.000000D+00  1.030195D+02  0.000000D+00 NZ=T
 IS=    14 IAt=     1 ISR=    14 T=2 IP=      2 IndIP=     81 IndIPD=      2 C=  0.000000D+00  0.000000D+00  1.087415D+02  0.000000D+00 NZ=T
 IS=    14 IAt=     1 ISR=    14 T=2 IP=      3 IndIP=     82 IndIPD=      3 C=  0.000000D+00  0.000000D+00  9.406317D+01  0.000000D+00 NZ=T
 IS=    14 IAt=     1 ISR=    14 T=2 IP=      4 IndIP=     83 IndIPD=      4 C=  0.000000D+00  0.000000D+00  6.303283D+01  0.000000D+00 NZ=T
 IS=    14 IAt=     1 ISR=    14 T=2 IP=      5 IndIP=     84 IndIPD=      5 C=  0.000000D+00  0.000000D+00  2.970058D+01  0.000000D+00 NZ=T
 IS=    14 IAt=     1 ISR=    14 T=2 IP=      6 IndIP=     85 IndIPD=      6 C=  0.000000D+00  0.000000D+00  9.092521D+00  0.000000D+00 NZ=T
 IS=    14 IAt=     1 ISR=    14 T=2 IP=      7 IndIP=     86 IndIPD=      7 C=  0.000000D+00  0.000000D+00  1.557171D+00  0.000000D+00 NZ=T
 IS=    15 IAt=     1 ISR=    15 T=2 IP=      1 IndIP=     87 IndIPD=      8 C=  0.000000D+00  0.000000D+00  1.134394D+00  0.000000D+00 NZ=T
 IS=    16 IAt=     1 ISR=    16 T=2 IP=      1 IndIP=     88 IndIPD=      9 C=  0.000000D+00  0.000000D+00  2.008585D-01  0.000000D+00 NZ=T
 IS=    17 IAt=     1 ISR=    17 T=2 IP=      1 IndIP=     89 IndIPD=     10 C=  0.000000D+00  0.000000D+00  4.367634D-02  0.000000D+00 NZ=T
 IS=    18 IAt=     1 ISR=    18 T=3 IP=      1 IndIP=     90 IndIPD=     11 C=  0.000000D+00  0.000000D+00  0.000000D+00  5.823447D-01 NZ=T
 IS=    19 IAt=     1 ISR=    19 T=3 IP=      1 IndIP=     91 IndIPD=     12 C=  0.000000D+00  0.000000D+00  0.000000D+00  1.198590D-01 NZ=T
 IExCor=  402 DFT=T Ex+Corr=B3LYP ExCW=0 ScaHFX=  0.200000
 ScaDFX=  0.800000  0.720000  1.000000  0.810000 ScalE2=  1.000000  1.000000
 IRadAn=      5 IRanWt=     -1 IRanGd=            0 ICorTp=0 IEmpDi=  4
 NAtoms=    1 NActive=    1 NUniq=    1 SFac= 1.00D+00 NAtFMM=   60 NAOKFM=F Big=F
 Integral buffers will be    131072 words long.
 Raffenetti 2 integral format.
 Two-electron integral symmetry is turned on.
 Leave Link  301 at Wed Jul  9 12:54:40 2025, MaxMem=  1073741824 cpu:               0.3 elap:               0.1
 (Enter /home/app/Gaussian/16.C.01/g16/l302.exe)
 NPDir=0 NMtPBC=     1 NCelOv=     1 NCel=       1 NClECP=     1 NCelD=      1
         NCelK=      1 NCelE2=     1 NClLst=     1 CellRange=     0.0.
 One-electron integrals computed using PRISM.
 One-electron integral symmetry used in STVInt
 Entering OneElI...
 Calculate overlap and kinetic energy integrals
    NBasis =  59  MinDer = 0  MaxDer = 0
 Requested accuracy = 0.1000D-12
 Symmetry will be used
 PrmmSu-InSpLW:  IPartL=    0 NPrtUS=    4 NPrtUL=    1 DoSpLW=F IThBeg=    0 IThEnd=    3 NThAct=    4.
 PrSmSu:  IncTry=   512 NBBP=            190 NTPThr=   100 NPartT=    4 Incr=           1 LDynOK=F GPUOK=F.
 PrsmSu:  NPrtUS=   4 ThrOK=T IAlg=1 LenDen=           0 ISkipM=0 DoSpLW=F IThBeg=    0 IThEnd=    3.
 Prism:   IPart=     0 DynPar=F LinDyn=F Incr=           1.
 PRISM was handed   268375505 working-precision words and   190 shell-pairs
 PRISM was handed   268375505 working-precision words and   190 shell-pairs
 PRISM was handed   268375505 working-precision words and   190 shell-pairs
 PRISM was handed   268375505 working-precision words and   190 shell-pairs
 IPart=  3 NShTot=          17 NBatch=          13 AvBLen=         1.3
 IPart=  2 NShTot=          36 NBatch=          32 AvBLen=         1.1
 IPart=  1 NShTot=          56 NBatch=          44 AvBLen=         1.3
 IPart=  0 NShTot=          81 NBatch=          65 AvBLen=         1.2
 PrSmSu:  NxtVal=              5.
 *** Overlap *** 
                1             2             3             4             5 
      1  0.100000D+01
      2  0.306838D+00  0.100000D+01
      3  0.110918D-01  0.367022D+00  0.100000D+01
      4 -0.254256D-01 -0.164169D+00 -0.578091D-01  0.100000D+01
      5  0.382903D-01  0.223024D+00  0.735426D+00  0.564272D+00  0.100000D+01
      6  0.117729D-01  0.701942D-01  0.297712D+00  0.820084D+00  0.651168D+00
      7  0.546973D-02  0.327036D-01  0.145617D+00  0.550702D+00  0.359042D+00
      8  0.000000D+00  0.000000D+00  0.000000D+00  0.000000D+00  0.000000D+00
      9  0.000000D+00  0.000000D+00  0.000000D+00  0.000000D+00  0.000000D+00
     10  0.000000D+00  0.000000D+00  0.000000D+00  0.000000D+00  0.000000D+00
     11  0.000000D+00  0.000000D+00  0.000000D+00  0.000000D+00  0.000000D+00
     12  0.000000D+00  0.000000D+00  0.000000D+00  0.000000D+00  0.000000D+00
     13  0.000000D+00  0.000000D+00  0.000000D+00  0.000000D+00  0.000000D+00
     14  0.000000D+00  0.000000D+00  0.000000D+00  0.000000D+00  0.000000D+00
     15  0.000000D+00  0.000000D+00  0.000000D+00  0.000000D+00  0.000000D+00
     16  0.000000D+00  0.000000D+00  0.000000D+00  0.000000D+00  0.000000D+00
     17  0.000000D+00  0.000000D+00  0.000000D+00  0.000000D+00  0.000000D+00
     18  0.000000D+00  0.000000D+00  0.000000D+00  0.000000D+00  0.000000D+00
     19  0.000000D+00  0.000000D+00  0.000000D+00  0.000000D+00  0.000000D+00
     20  0.000000D+00  0.000000D+00  0.000000D+00  0.000000D+00  0.000000D+00
     21  0.000000D+00  0.000000D+00  0.000000D+00  0.000000D+00  0.000000D+00
     22  0.000000D+00  0.000000D+00  0.000000D+00  0.000000D+00  0.000000D+00
     23  0.000000D+00  0.000000D+00  0.000000D+00  0.000000D+00  0.000000D+00
     24  0.000000D+00  0.000000D+00  0.000000D+00  0.000000D+00  0.000000D+00
     25  0.000000D+00  0.000000D+00  0.000000D+00  0.000000D+00  0.000000D+00
     26  0.000000D+00  0.000000D+00  0.000000D+00  0.000000D+00  0.000000D+00
     27  0.000000D+00  0.000000D+00  0.000000D+00  0.000000D+00  0.000000D+00
[...]
  40       16D-2        0.00000   0.00000   0.00000   0.00000   0.00000
  41       17D 0        0.00000   0.00000   0.00000   0.00000   0.00000
  42       17D+1        0.00000   0.00000   0.00000   0.00000   0.00000
  43       17D-1        0.00000   0.00000   0.00000   0.00000   0.00000
  44       17D+2        0.00000   0.00000   0.00000   0.00000   0.00000
  45       17D-2        0.00000   0.00000   0.00000   0.00000   0.00000
  46       18F 0       -0.00000   0.00000  -0.00000   0.00000   0.00000
  47       18F+1       -0.00000  -0.00000  -0.00000  -0.00000  -0.00000
  48       18F-1       -0.00000  -0.00000  -0.00000  -0.00000  -0.00000
  49       18F+2       -0.00000   0.00000  -0.00000  -0.00000   0.00000
  50       18F-2        0.00000  -0.00000   0.00000  -0.00000  -0.00000
  51       18F+3        0.00000  -0.00000   0.00000   0.00000  -0.00000
  52       18F-3        0.00000   0.00000   0.00000   0.00000   0.00000
  53       19F 0       -0.00000   0.00000   0.00000  -0.00000  -0.00000
  54       19F+1        0.00000   0.00000  -0.00000   0.00000   0.00000
  55       19F-1        0.00000  -0.00000  -0.00000  -0.00000   0.00000
  56       19F+2       -0.00000   0.00000  -0.00000  -0.00000  -0.00000
  57       19F-2       -0.00000   0.00000   0.00000  -0.00000   0.00000
  58       19F+3        0.00000   0.00000   0.00000   0.00000   0.00000
  59       19F-3        0.00000   0.00000   0.00000   0.00000   0.00000
                          26        27        28        29        30
  26       14D 0        1.87657
  27       14D+1        0.00000   1.87657
  28       14D-1        0.00000   0.00000   1.87657
  29       14D+2       -0.00000  -0.00000   0.00000   1.87657
  30       14D-2       -0.00000  -0.00000   0.00000  -0.00000   1.87657
  31       15D 0        0.05556  -0.00000  -0.00000   0.00000  -0.00000
  32       15D+1       -0.00000   0.05556   0.00000  -0.00000   0.00000
  33       15D-1       -0.00000  -0.00000   0.05556  -0.00000   0.00000
  34       15D+2        0.00000   0.00000   0.00000   0.05556  -0.00000
  35       15D-2       -0.00000   0.00000  -0.00000  -0.00000   0.05556
  36       16D 0       -0.00010   0.00000   0.00000  -0.00000   0.00000
  37       16D+1        0.00000  -0.00010   0.00000   0.00000  -0.00000
  38       16D-1        0.00000   0.00000  -0.00010   0.00000   0.00000
  39       16D+2       -0.00000  -0.00000  -0.00000  -0.00010   0.00000
  40       16D-2        0.00000  -0.00000   0.00000   0.00000  -0.00010
  41       17D 0        0.00007  -0.00000   0.00000  -0.00000   0.00000
  42       17D+1       -0.00000   0.00007  -0.00000  -0.00000   0.00000
  43       17D-1        0.00000  -0.00000   0.00007   0.00000   0.00000
  44       17D+2        0.00000   0.00000   0.00000   0.00007   0.00000
  45       17D-2       -0.00000   0.00000  -0.00000   0.00000   0.00007
  46       18F 0        0.00000   0.00000   0.00000   0.00000   0.00000
  47       18F+1        0.00000   0.00000   0.00000   0.00000   0.00000
  48       18F-1        0.00000   0.00000   0.00000   0.00000   0.00000
  49       18F+2        0.00000   0.00000   0.00000   0.00000   0.00000
  50       18F-2        0.00000   0.00000   0.00000   0.00000   0.00000
  51       18F+3        0.00000   0.00000   0.00000   0.00000   0.00000
  52       18F-3        0.00000   0.00000   0.00000   0.00000   0.00000
  53       19F 0        0.00000   0.00000   0.00000   0.00000   0.00000
  54       19F+1        0.00000   0.00000   0.00000   0.00000   0.00000
  55       19F-1        0.00000   0.00000   0.00000   0.00000   0.00000
  56       19F+2        0.00000   0.00000   0.00000   0.00000   0.00000
  57       19F-2        0.00000   0.00000   0.00000   0.00000   0.00000
  58       19F+3        0.00000   0.00000   0.00000   0.00000   0.00000
  59       19F-3        0.00000   0.00000   0.00000   0.00000   0.00000
                          31        32        33        34        35
  31       15D 0        0.01237
  32       15D+1       -0.00000   0.01237
  33       15D-1       -0.00000  -0.00000   0.01237
  34       15D+2       -0.00000   0.00000  -0.00000   0.01237
  35       15D-2       -0.00000   0.00000  -0.00000   0.00000   0.01237
  36       16D 0       -0.00005   0.00000   0.00000   0.00000   0.00000
  37       16D+1       -0.00000  -0.00005  -0.00000  -0.00000  -0.00000
  38       16D-1       -0.00000   0.00000  -0.00005  -0.00000  -0.00000
  39       16D+2        0.00000  -0.00000  -0.00000  -0.00005   0.00000
  40       16D-2        0.00000   0.00000  -0.00000   0.00000  -0.00005
  41       17D 0        0.00005   0.00000  -0.00000   0.00000  -0.00000
  42       17D+1       -0.00000   0.00005   0.00000   0.00000   0.00000
  43       17D-1        0.00000   0.00000   0.00005   0.00000  -0.00000
  44       17D+2       -0.00000   0.00000  -0.00000   0.00005  -0.00000
  45       17D-2       -0.00000  -0.00000  -0.00000  -0.00000   0.00005
  46       18F 0        0.00000   0.00000   0.00000   0.00000   0.00000
  47       18F+1        0.00000   0.00000   0.00000   0.00000   0.00000
  48       18F-1        0.00000   0.00000   0.00000   0.00000   0.00000
  49       18F+2        0.00000   0.00000   0.00000   0.00000   0.00000
  50       18F-2        0.00000   0.00000   0.00000   0.00000   0.00000
  51       18F+3        0.00000   0.00000   0.00000   0.00000   0.00000
  52       18F-3        0.00000   0.00000   0.00000   0.00000   0.00000
  53       19F 0        0.00000   0.00000   0.00000   0.00000   0.00000
  54       19F+1        0.00000   0.00000   0.00000   0.00000   0.00000
  55       19F-1        0.00000   0.00000   0.00000   0.00000   0.00000
  56       19F+2        0.00000   0.00000   0.00000   0.00000   0.00000
  57       19F-2        0.00000   0.00000   0.00000   0.00000   0.00000
  58       19F+3        0.00000   0.00000   0.00000   0.00000   0.00000
  59       19F-3        0.00000   0.00000   0.00000   0.00000   0.00000
                          36        37        38        39        40
  36       16D 0        0.00000
  37       16D+1       -0.00000   0.00000
  38       16D-1        0.00000  -0.00000   0.00000
  39       16D+2       -0.00000   0.00000   0.00000   0.00000
  40       16D-2       -0.00000   0.00000  -0.00000   0.00000   0.00000
  41       17D 0       -0.00000  -0.00000   0.00000  -0.00000   0.00000
  42       17D+1       -0.00000  -0.00000  -0.00000  -0.00000  -0.00000
  43       17D-1        0.00000   0.00000  -0.00000   0.00000   0.00000
  44       17D+2        0.00000  -0.00000  -0.00000  -0.00000   0.00000
  45       17D-2        0.00000  -0.00000   0.00000   0.00000  -0.00000
  46       18F 0        0.00000   0.00000   0.00000   0.00000   0.00000
  47       18F+1        0.00000   0.00000   0.00000   0.00000   0.00000
  48       18F-1        0.00000   0.00000   0.00000   0.00000   0.00000
  49       18F+2        0.00000   0.00000   0.00000   0.00000   0.00000
  50       18F-2        0.00000   0.00000   0.00000   0.00000   0.00000
  51       18F+3        0.00000   0.00000   0.00000   0.00000   0.00000
  52       18F-3        0.00000   0.00000   0.00000   0.00000   0.00000
  53       19F 0        0.00000   0.00000   0.00000   0.00000   0.00000
  54       19F+1        0.00000   0.00000   0.00000   0.00000   0.00000
  55       19F-1        0.00000   0.00000   0.00000   0.00000   0.00000
  56       19F+2        0.00000   0.00000   0.00000   0.00000   0.00000
  57       19F-2        0.00000   0.00000   0.00000   0.00000   0.00000
  58       19F+3        0.00000   0.00000   0.00000   0.00000   0.00000
  59       19F-3        0.00000   0.00000   0.00000   0.00000   0.00000
                          41        42        43        44        45
  41       17D 0        0.00000
  42       17D+1       -0.00000   0.00000
  43       17D-1       -0.00000   0.00000   0.00000
  44       17D+2       -0.00000  -0.00000  -0.00000   0.00000
  45       17D-2       -0.00000   0.00000  -0.00000  -0.00000   0.00000
  46       18F 0        0.00000   0.00000   0.00000   0.00000   0.00000
  47       18F+1        0.00000   0.00000   0.00000   0.00000   0.00000
  48       18F-1        0.00000   0.00000   0.00000   0.00000   0.00000
  49       18F+2        0.00000   0.00000   0.00000   0.00000   0.00000
  50       18F-2        0.00000   0.00000   0.00000   0.00000   0.00000
  51       18F+3        0.00000   0.00000   0.00000   0.00000   0.00000
  52       18F-3        0.00000   0.00000   0.00000   0.00000   0.00000
  53       19F 0        0.00000   0.00000   0.00000   0.00000   0.00000
  54       19F+1        0.00000   0.00000   0.00000   0.00000   0.00000
  55       19F-1        0.00000   0.00000   0.00000   0.00000   0.00000
  56       19F+2        0.00000   0.00000   0.00000   0.00000   0.00000
  57       19F-2        0.00000   0.00000   0.00000   0.00000   0.00000
  58       19F+3        0.00000   0.00000   0.00000   0.00000   0.00000
  59       19F-3        0.00000   0.00000   0.00000   0.00000   0.00000
                          46        47        48        49        50
  46       18F 0        0.00000
  47       18F+1       -0.00000   0.00000
  48       18F-1        0.00000   0.00000   0.00000
  49       18F+2        0.00000   0.00000  -0.00000   0.00000
  50       18F-2       -0.00000   0.00000  -0.00000  -0.00000   0.00000
  51       18F+3        0.00000   0.00000  -0.00000   0.00000   0.00000
  52       18F-3        0.00000  -0.00000   0.00000   0.00000  -0.00000
  53       19F 0        0.00000  -0.00000   0.00000   0.00000  -0.00000
  54       19F+1       -0.00000   0.00000   0.00000   0.00000   0.00000
  55       19F-1       -0.00000  -0.00000   0.00000  -0.00000   0.00000
  56       19F+2       -0.00000   0.00000  -0.00000  -0.00000  -0.00000
  57       19F-2        0.00000   0.00000  -0.00000  -0.00000   0.00000
  58       19F+3        0.00000  -0.00000   0.00000   0.00000  -0.00000
  59       19F-3       -0.00000  -0.00000  -0.00000   0.00000   0.00000
                          51        52        53        54        55
  51       18F+3        0.00000
  52       18F-3        0.00000   0.00000
  53       19F 0        0.00000  -0.00000   0.00000
  54       19F+1       -0.00000   0.00000   0.00000   0.00000
  55       19F-1        0.00000  -0.00000   0.00000  -0.00000   0.00000
  56       19F+2       -0.00000  -0.00000   0.00000   0.00000   0.00000
  57       19F-2       -0.00000  -0.00000   0.00000   0.00000  -0.00000
  58       19F+3        0.00000  -0.00000  -0.00000  -0.00000  -0.00000
  59       19F-3        0.00000   0.00000  -0.00000  -0.00000  -0.00000
                          56        57        58        59
  56       19F+2        0.00000
  57       19F-2       -0.00000   0.00000
  58       19F+3        0.00000  -0.00000   0.00000
  59       19F-3       -0.00000  -0.00000   0.00000   0.00000
     Gross orbital populations:
                           1
   1 1   Kr 1S          1.99998
   2        2S          2.00108
   3        3S          1.91525
   4        4S          1.13462
   5        5S          0.45406
   6        6S          0.49561
   7        7S         -0.00061
   8        8PX         1.99965
   9        8PY         1.99965
  10        8PZ         1.99965
  11        9PX         1.96016
  12        9PY         1.96016
  13        9PZ         1.96016
  14       10PX         1.04122
  15       10PY         1.04122
  16       10PZ         1.04122
  17       11PX         0.50794
  18       11PY         0.50794
  19       11PZ         0.50794
  20       12PX         0.48096
  21       12PY         0.48096
  22       12PZ         0.48096
  23       13PX         0.01006
  24       13PY         0.01006
  25       13PZ         0.01006
  26       14D 0        1.93210
  27       14D+1        1.93210
  28       14D-1        1.93210
  29       14D+2        1.93210
  30       14D-2        1.93210
  31       15D 0        0.06793
  32       15D+1        0.06793
  33       15D-1        0.06793
  34       15D+2        0.06793
  35       15D-2        0.06793
  36       16D 0       -0.00015
  37       16D+1       -0.00015
  38       16D-1       -0.00015
  39       16D+2       -0.00015
  40       16D-2       -0.00015
  41       17D 0        0.00012
  42       17D+1        0.00012
  43       17D-1        0.00012
  44       17D+2        0.00012
  45       17D-2        0.00012
  46       18F 0        0.00000
  47       18F+1        0.00000
  48       18F-1        0.00000
  49       18F+2        0.00000
  50       18F-2        0.00000
  51       18F+3        0.00000
  52       18F-3        0.00000
  53       19F 0        0.00000
  54       19F+1        0.00000
  55       19F-1        0.00000
  56       19F+2        0.00000
  57       19F-2        0.00000
  58       19F+3        0.00000
  59       19F-3        0.00000
          Condensed to atoms (all electrons):
               1
     1  Kr  36.000000
 Mulliken charges:
               1
     1  Kr  -0.000000
 Sum of Mulliken charges =  -0.00000
 Mulliken charges with hydrogens summed into heavy atoms:
               1
     1  Kr  -0.000000
 GSVD:  LWork=       -3953 too small for GESVD, short by       18290 words or       18290 for optimal perf.
 Atomic Valencies and Mayer Atomic Bond Orders:
               1
     1  Kr   0.000000
 Lowdin Atomic Charges:
               1
     1  Kr  -0.000000
 Sum of Lowdin charges  =  -0.00000
 Lowdin atomic charges with hydrogens summed into heavy atoms:
               1
     1  Kr  -0.000000
 Sum of Lowdin charges  =  -0.00000
 Dipole moment from Lowdin charges (Debye):
    X=     0.0000    Y=     0.0000    Z=     0.0000  Tot=     0.0000
 Electronic spatial extent (au):  <R**2>=             39.6533
 Charge=             -0.0000 electrons
 Dipole moment (field-independent basis, Debye):
    X=              0.0000    Y=              0.0000    Z=              0.0000  Tot=              0.0000
 Quadrupole moment (field-independent basis, Debye-Ang):
   XX=            -17.7783   YY=            -17.7783   ZZ=            -17.7783
   XY=             -0.0000   XZ=             -0.0000   YZ=             -0.0000
 Traceless Quadrupole moment (field-independent basis, Debye-Ang):
   XX=              0.0000   YY=              0.0000   ZZ=              0.0000
   XY=             -0.0000   XZ=             -0.0000   YZ=             -0.0000
 Octapole moment (field-independent basis, Debye-Ang**2):
  XXX=              0.0000  YYY=              0.0000  ZZZ=              0.0000  XYY=              0.0000
  XXY=              0.0000  XXZ=              0.0000  XZZ=              0.0000  YZZ=              0.0000
  YYZ=              0.0000  XYZ=              0.0000
 Hexadecapole moment (field-independent basis, Debye-Ang**3):
 XXXX=            -19.0561 YYYY=            -19.0561 ZZZZ=            -19.0561 XXXY=              0.0000
 XXXZ=             -0.0000 YYYX=             -0.0000 YYYZ=              0.0000 ZZZX=              0.0000
 ZZZY=             -0.0000 XXYY=             -6.3520 XXZZ=             -6.3520 YYZZ=             -6.3520
 XXYZ=             -0.0000 YYXZ=             -0.0000 ZZXY=             -0.0000
 N-N= 0.000000000000D+00 E-N=-6.579785960148D+03  KE= 2.750121599153D+03
 Symmetry AG   KE= 1.674939869002D+03
 Symmetry B1G  KE= 4.753639028208D+01
 Symmetry B2G  KE= 4.753639028208D+01
 Symmetry B3G  KE= 4.753639028208D+01
 Symmetry AU   KE= 4.148041917775D-53
 Symmetry B1U  KE= 3.108575197680D+02
 Symmetry B2U  KE= 3.108575197680D+02
 Symmetry B3U  KE= 3.108575197680D+02
 Orbital energies and kinetic energies (alpha):
                                 1                 2
   1         (A1G)--O       -512.782015        630.148198
   2         (A1G)--O        -67.151672        124.884425
   3         (T1U)--O        -60.725910        124.086041
   4         (T1U)--O        -60.725910        124.086041
   5         (T1U)--O        -60.725910        124.086041
   6         (A1G)--O         -9.658189         30.241625
   7         (T1U)--O         -7.359539         28.161182
   8         (T1U)--O         -7.359539         28.161182
   9         (T1U)--O         -7.359539         28.161182
  10         (T2G)--O         -3.237544         23.768195
  11         (T2G)--O         -3.237544         23.768195
  12         (T2G)--O         -3.237544         23.768195
  13         (EG)--O          -3.237544         23.768195
  14         (EG)--O          -3.237544         23.768195
  15         (A1G)--O         -0.892069          4.659296
  16         (T1U)--O         -0.385243          3.181537
  17         (T1U)--O         -0.385243          3.181537
  18         (T1U)--O         -0.385243          3.181537
  19         (A1G)--V          0.020544          0.567004
  20         (T1U)--V          0.056067          0.364209
  21         (T1U)--V          0.056067          0.364209
  22         (T1U)--V          0.056067          0.364209
  23         (T2G)--V          0.182877          0.783840
  24         (T2G)--V          0.182877          0.783840
  25         (T2G)--V          0.182877          0.783840
  26         (EG)--V           0.182877          0.783840
  27         (EG)--V           0.182877          0.783840
  28         (T1U)--V          0.420759          1.740289
  29         (T1U)--V          0.420759          1.740289
  30         (T1U)--V          0.420759          1.740289
  31         (A1G)--V          0.570604          2.535687
  32         (T2G)--V          0.658591          2.314376
  33         (T2G)--V          0.658591          2.314376
  34         (T2G)--V          0.658591          2.314376
  35         (EG)--V           0.658591          2.314376
  36         (EG)--V           0.658591          2.314376
  37         (T2U)--V          0.939465          1.379565
  38         (T2U)--V          0.939465          1.379565
  39         (T2U)--V          0.939465          1.379565
  40         (A2U)--V          0.939465          1.379565
  41         (T1U)--V          0.939465          1.379565
  42         (T1U)--V          0.939465          1.379565
  43         (T1U)--V          0.939465          1.379565
  44         (T1U)--V          2.016006         10.443519
  45         (T1U)--V          2.016006         10.443519
  46         (T1U)--V          2.016006         10.443519
  47         (T2G)--V          2.168133          7.625754
  48         (T2G)--V          2.168133          7.625754
  49         (T2G)--V          2.168133          7.625754
  50         (EG)--V           2.168133          7.625754
  51         (EG)--V           2.168133          7.625754
  52         (T2U)--V          2.367499          3.778119
  53         (T2U)--V          2.367499          3.778119
  54         (T2U)--V          2.367499          3.778119
  55         (A2U)--V          2.367499          3.778119
  56         (T1U)--V          2.367499          3.778119
  57         (T1U)--V          2.367499          3.778119
  58         (T1U)--V          2.367499          3.778119
  59         (A1G)--V          3.497250         21.353065
 Total kinetic energy from orbitals= 2.750121599153D+03
 No NMR shielding tensors so no spin-rotation constants.
 Leave Link  601 at Wed Jul  9 12:54:42 2025, MaxMem=  1073741824 cpu:               0.7 elap:               0.2
 (Enter /home/app/Gaussian/16.C.01/g16/l9999.exe)

 Test job not archived.
 1\1\GINC-GENKAI0002\SP\RB3LYP\Aug-CC-pVTZ\Kr1\KU50001398\09-Jul-2025\0
 \\#p B3LYP/aug-cc-pVTZ IOp(3/33=1,6/80=1) SCF=Tight Pop=Full\\Kr atom 
 BEB calculation with kinetic energies\\0,1\Kr,0,0.,0.,0.\\Version=ES64
 L-G16RevC.01\State=1-A1G\HF=-2753.8370815\RMSD=6.462e-10\Dipole=0.,0.,
 0.\Quadrupole=0.,0.,0.,0.,0.,0.\PG=OH [O(Kr1)]\\@


 There are more things in heaven and earth, Horatio,
 than are dreamt of in your philosophy.
                   -- Hamlet, Act I, Scene 5
 Job cpu time:       0 days  0 hours  0 minutes  6.3 seconds.
 Elapsed time:       0 days  0 hours  0 minutes  1.8 seconds.
 File lengths (MBytes):  RWF=      6 Int=      0 D2E=      0 Chk=      1 Scr=      1
 Normal termination of Gaussian 16 at Wed Jul  9 12:54:42 2025.
